TITLE = "B00001"
VARIABLES = "x", "y", "Vx", "Vy", "isValid"
ZONE T="Frame 0", I=102, J=78, F=POINT
-125.6671117544 126.6671117544 0 -0 0
-123.8893357515 126.6671117544 0 -0 0
-122.1115597486 126.6671117544 0 -0 0
-120.3337837458 126.6671117544 0 -0 0
-118.5560077429 126.6671117544 0 -0 0
-116.77823174 126.6671117544 0 -0 0
-115.0004557371 126.6671117544 0 -0 0
-113.2226797342 126.6671117544 0 -0 0
-111.4449037313 126.6671117544 0 -0 0
-109.6671277285 126.6671117544 0 -0 0
-107.8893517256 126.6671117544 0 -0 0
-106.1115757227 126.6671117544 0 -0 0
-104.3337997198 126.6671117544 0 -0 0
-102.5560237169 126.6671117544 0 -0 0
-100.778247714 126.6671117544 0 -0 0
-99.0004717112 126.6671117544 0 -0 0
-97.2226957083 126.6671117544 0 -0 0
-95.4449197054 126.6671117544 0 -0 0
-93.6671437025 126.6671117544 0 -0 0
-91.8893676996 126.6671117544 0 -0 0
-90.1115916967 126.6671117544 0 -0 0
-88.3338156939 126.6671117544 0 -0 0
-86.556039691 126.6671117544 0 -0 0
-84.7782636881 126.6671117544 0 -0 0
-83.0004876852 126.6671117544 0 -0 0
-81.2227116823 126.6671117544 0 -0 0
-79.4449356794 126.6671117544 0 -0 0
-77.6671596766 126.6671117544 0 -0 0
-75.8893836737 126.6671117544 0 -0 0
-74.1116076708 126.6671117544 0 -0 0
-72.3338316679 126.6671117544 0 -0 0
-70.556055665 126.6671117544 0 -0 0
-68.7782796621 126.6671117544 0 -0 0
-67.0005036592 126.6671117544 0 -0 0
-65.2227276564 126.6671117544 0 -0 0
-63.4449516535 126.6671117544 0 -0 0
-61.6671756506 126.6671117544 0 -0 0
-59.8893996477 126.6671117544 0 -0 0
-58.1116236448 126.6671117544 0 -0 0
-56.3338476419 126.6671117544 0 -0 0
-54.5560716391 126.6671117544 0 -0 0
-52.7782956362 126.6671117544 0 -0 0
-51.0005196333 126.6671117544 0 -0 0
-49.2227436304 126.6671117544 0 -0 0
-47.4449676275 126.6671117544 0 -0 0
-45.6671916246 126.6671117544 0 -0 0
-43.8894156218 126.6671117544 0 -0 0
-42.1116396189 126.6671117544 0 -0 0
-40.333863616 126.6671117544 0 -0 0
-38.5560876131 126.6671117544 0 -0 0
-36.7783116102 126.6671117544 0 -0 0
-35.0005356073 126.6671117544 0 -0 0
-33.2227596045 126.6671117544 0 -0 0
-31.4449836016 126.6671117544 0 -0 0
-29.6672075987 126.6671117544 0 -0 0
-27.8894315958 126.6671117544 0 -0 0
-26.1116555929 126.6671117544 0 -0 0
-24.33387959 126.6671117544 0 -0 0
-22.5561035872 126.6671117544 0 -0 0
-20.7783275843 126.6671117544 0 -0 0
-19.0005515814 126.6671117544 0 -0 0
-17.2227755785 126.6671117544 0 -0 0
-15.4449995756 126.6671117544 0 -0 0
-13.6672235727 126.6671117544 0 -0 0
-11.8894475698 126.6671117544 0 -0 0
-10.111671567 126.6671117544 0 -0 0
-8.3338955641 126.6671117544 0 -0 0
-6.5561195612 126.6671117544 0 -0 0
-4.7783435583 126.6671117544 0 -0 0
-3.0005675554 126.6671117544 0 -0 0
-1.2227915525 126.6671117544 0 -0 0
0.5549844503 126.6671117544 0 -0 0
2.3327604532 126.6671117544 0 -0 0
4.1105364561 126.6671117544 0 -0 0
5.888312459 126.6671117544 0 -0 0
7.6660884619 126.6671117544 0 -0 0
9.4438644648 126.6671117544 0 -0 0
11.2216404676 126.6671117544 0 -0 0
12.9994164705 126.6671117544 0 -0 0
14.7771924734 126.6671117544 0 -0 0
16.5549684763 126.6671117544 0 -0 0
18.3327444792 126.6671117544 0 -0 0
20.1105204821 126.6671117544 0 -0 0
21.8882964849 126.6671117544 0 -0 0
23.6660724878 126.6671117544 0 -0 0
25.4438484907 126.6671117544 0 -0 0
27.2216244936 126.6671117544 0 -0 0
28.9994004965 126.6671117544 0 -0 0
30.7771764994 126.6671117544 0 -0 0
32.5549525023 126.6671117544 0 -0 0
34.3327285051 126.6671117544 0 -0 0
36.110504508 126.6671117544 0 -0 0
37.8882805109 126.6671117544 0 -0 0
39.6660565138 126.6671117544 0 -0 0
41.4438325167 126.6671117544 0 -0 0
43.2216085196 126.6671117544 0 -0 0
44.9993845224 126.6671117544 0 -0 0
46.7771605253 126.6671117544 0 -0 0
48.5549365282 126.6671117544 0 -0 0
50.3327125311 126.6671117544 0 -0 0
52.110488534 126.6671117544 0 -0 0
53.8882645369 126.6671117544 0 -0 0
-125.6671117544 124.8893357515 0 -0 0
-123.8893357515 124.8893357515 -10.4545225969 -0.173246467 1
-122.1115597486 124.8893357515 -10.5097411442 -0.1718643297 1
-120.3337837458 124.8893357515 -10.5082354572 -0.1743546894 1
-118.5560077429 124.8893357515 -10.520335367 -0.1887031957 1
-116.77823174 124.8893357515 -10.5326078259 -0.2075727679 1
-115.0004557371 124.8893357515 -10.558699241 -0.1883335756 1
-113.2226797342 124.8893357515 -10.5742422554 -0.1554364199 1
-111.4449037313 124.8893357515 -10.6066320674 -0.1466318449 1
-109.6671277285 124.8893357515 -10.6393548059 -0.1535835653 1
-107.8893517256 124.8893357515 -10.6437773587 -0.1637867896 1
-106.1115757227 124.8893357515 -10.6683401758 -0.1502501721 1
-104.3337997198 124.8893357515 -10.6770334956 -0.0871088576 1
-102.5560237169 124.8893357515 -10.6739111461 -0.0469509225 1
-100.778247714 124.8893357515 -10.6917230726 -0.0461319999 1
-99.0004717112 124.8893357515 -10.7401671023 -0.0523541598 1
-97.2226957083 124.8893357515 -10.750321003 -0.0349997752 1
-95.4449197054 124.8893357515 -10.7528032744 -0.0030304332 1
-93.6671437025 124.8893357515 -10.7795619745 0.0055848171 1
-91.8893676996 124.8893357515 -10.7757837955 0.0273567512 1
-90.1115916967 124.8893357515 -10.7754301059 0.0791711277 1
-88.3338156939 124.8893357515 -10.8384598967 0.1120193009 1
-86.556039691 124.8893357515 -10.8510645661 0.1193366252 1
-84.7782636881 124.8893357515 -10.8273795295 0.1435834753 1
-83.0004876852 124.8893357515 -10.8385458132 0.1879448481 1
-81.2227116823 124.8893357515 -10.7991201543 0.2251852741 1
-79.4449356794 124.8893357515 -10.8046918406 0.2332274184 1
-77.6671596766 124.8893357515 -10.8368425182 0.2539760118 1
-75.8893836737 124.8893357515 -10.8218164349 0.2800864896 1
-74.1116076708 124.8893357515 -10.8169585717 0.3254862553 1
-72.3338316679 124.8893357515 -10.8095031657 0.3753996589 1
-70.556055665 124.8893357515 -10.8082401928 0.3773223095 1
-68.7782796621 124.8893357515 0 -0 0
-67.0005036592 124.8893357515 0 -0 0
-65.2227276564 124.8893357515 0 -0 0
-63.4449516535 124.8893357515 0 -0 0
-61.6671756506 124.8893357515 0 -0 0
-59.8893996477 124.8893357515 -10.6420855193 0.5634941897 1
-58.1116236448 124.8893357515 -10.7550807782 0.636553884 1
-56.3338476419 124.8893357515 -10.6936934248 0.6525822372 1
-54.5560716391 124.8893357515 -10.7008703181 0.6706591625 1
-52.7782956362 124.8893357515 -10.6986200212 0.6883807871 1
-51.0005196333 124.8893357515 -10.6210395518 0.72550715 1
-49.2227436304 124.8893357515 -10.5974182366 0.76248298 1
-47.4449676275 124.8893357515 -10.6231151517 0.7778796678 1
-45.6671916246 124.8893357515 -10.6311039561 0.7994375546 1
-43.8894156218 124.8893357515 -10.6593404203 0.7988201191 1
-42.1116396189 124.8893357515 -10.629747907 0.8208938629 1
-40.333863616 124.8893357515 -10.5957929825 0.8463347289 1
-38.5560876131 124.8893357515 -10.5719160656 0.8289923899 1
-36.7783116102 124.8893357515 -10.4677823798 0.8901479476 1
-35.0005356073 124.8893357515 -10.3927693824 0.9024690925 1
-33.2227596045 124.8893357515 -10.3889482452 0.858786091 1
-31.4449836016 124.8893357515 -10.3340533168 0.8642746352 1
-29.6672075987 124.8893357515 -10.3070039325 0.9280004393 1
-27.8894315958 124.8893357515 -10.3490171107 0.8811490871 1
-26.1116555929 124.8893357515 -10.4150819026 0.9068828747 1
-24.33387959 124.8893357515 -10.427514023 0.9404047264 1
-22.5561035872 124.8893357515 -10.3254666766 0.9816923574 1
-20.7783275843 124.8893357515 -10.2251362287 1.0472783437 1
-19.0005515814 124.8893357515 -10.222389048 1.0225503164 1
-17.2227755785 124.8893357515 -10.2536275786 0.9709003476 1
-15.4449995756 124.8893357515 -10.2209213074 1.0032223213 1
-13.6672235727 124.8893357515 -10.1730049484 0.9723821391 1
-11.8894475698 124.8893357515 -10.1991443336 0.9671278964 1
-10.111671567 124.8893357515 -10.1707668231 1.0153288539 1
-8.3338955641 124.8893357515 -10.1168835617 1.0091011592 1
-6.5561195612 124.8893357515 -10.0648560972 0.9774274972 1
-4.7783435583 124.8893357515 -10.0901363172 0.9491597092 1
-3.0005675554 124.8893357515 -10.0630060281 0.9187845501 1
-1.2227915525 124.8893357515 -9.9450447944 0.8753904429 1
0.5549844503 124.8893357515 -9.9000947032 0.8877841694 1
2.3327604532 124.8893357515 -9.9174176215 0.9142395662 1
4.1105364561 124.8893357515 -9.9312630687 0.9128548783 1
5.888312459 124.8893357515 -9.859662389 0.8906533337 1
7.6660884619 124.8893357515 -9.8054941712 0.851898092 1
9.4438644648 124.8893357515 -9.7711683737 0.8064835146 1
11.2216404676 124.8893357515 -9.9387191907 0.7914200218 1
12.9994164705 124.8893357515 0 -0 0
14.7771924734 124.8893357515 0 -0 0
16.5549684763 124.8893357515 0 -0 0
18.3327444792 124.8893357515 0 -0 0
20.1105204821 124.8893357515 0 -0 0
21.8882964849 124.8893357515 0 -0 0
23.6660724878 124.8893357515 0 -0 0
25.4438484907 124.8893357515 0 -0 0
27.2216244936 124.8893357515 0 -0 0
28.9994004965 124.8893357515 0 -0 0
30.7771764994 124.8893357515 0 -0 0
32.5549525023 124.8893357515 0 -0 0
34.3327285051 124.8893357515 0 -0 0
36.110504508 124.8893357515 -9.4764847345 0.5964389687 1
37.8882805109 124.8893357515 -9.5307911347 0.5541487993 1
39.6660565138 124.8893357515 -9.5317390803 0.4829141598 1
41.4438325167 124.8893357515 -9.5418349873 0.4882740977 1
43.2216085196 124.8893357515 -9.5074490482 0.5351852782 1
44.9993845224 124.8893357515 -9.5646329358 0.4972602944 1
46.7771605253 124.8893357515 -9.6040807899 0.3940672155 1
48.5549365282 124.8893357515 -9.5687404614 0.3172558779 1
50.3327125311 124.8893357515 -9.4748516046 0.3601386028 1
52.110488534 124.8893357515 -9.3773900525 0.379235921 1
53.8882645369 124.8893357515 0 -0 0
-125.6671117544 123.1115597486 0 -0 0
-123.8893357515 123.1115597486 -10.4788677588 -0.2073036971 1
-122.1115597486 123.1115597486 -10.521248946 -0.2030547896 1
-120.3337837458 123.1115597486 -10.5435543065 -0.1928481531 1
-118.5560077429 123.1115597486 -10.5344944095 -0.1827068603 1
-116.77823174 123.1115597486 -10.5526421264 -0.197553962 1
-115.0004557371 123.1115597486 -10.5565742391 -0.1919993919 1
-113.2226797342 123.1115597486 -10.5429442992 -0.1821447783 1
-111.4449037313 123.1115597486 -10.6004782967 -0.1853050743 1
-109.6671277285 123.1115597486 -10.6619572943 -0.1978552068 1
-107.8893517256 123.1115597486 -10.6499239698 -0.195500423 1
-106.1115757227 123.1115597486 -10.6543021324 -0.1579060388 1
-104.3337997198 123.1115597486 -10.6928199402 -0.0943533654 1
-102.5560237169 123.1115597486 -10.7083915934 -0.0696482435 1
-100.778247714 123.1115597486 -10.7357395376 -0.0814572231 1
-99.0004717112 123.1115597486 -10.7457810309 -0.0725064669 1
-97.2226957083 123.1115597486 -10.7544077654 -0.0534724674 1
-95.4449197054 123.1115597486 -10.7751566049 -0.0228545032 1
-93.6671437025 123.1115597486 -10.7664367942 -0.0314450547 1
-91.8893676996 123.1115597486 -10.7893922563 -0.0077924997 1
-90.1115916967 123.1115597486 -10.8299763564 0.0396549878 1
-88.3338156939 123.1115597486 -10.86568183 0.070911882 1
-86.556039691 123.1115597486 -10.8548534847 0.111251959 1
-84.7782636881 123.1115597486 -10.8442721493 0.1738633207 1
-83.0004876852 123.1115597486 -10.8499104209 0.194812263 1
-81.2227116823 123.1115597486 -10.8431502227 0.2060398517 1
-79.4449356794 123.1115597486 -10.8530478058 0.2514381407 1
-77.6671596766 123.1115597486 -10.8888993376 0.2767297715 1
-75.8893836737 123.1115597486 -10.8732646789 0.2880060462 1
-74.1116076708 123.1115597486 -10.8306959072 0.2988759403 1
-72.3338316679 123.1115597486 -10.8259218126 0.3234863917 1
-70.556055665 123.1115597486 -10.8526210871 0.3650081453 1
-68.7782796621 123.1115597486 0 -0 0
-67.0005036592 123.1115597486 0 -0 0
-65.2227276564 123.1115597486 0 -0 0
-63.4449516535 123.1115597486 0 -0 0
-61.6671756506 123.1115597486 0 -0 0
-59.8893996477 123.1115597486 -10.6932846053 0.5706253951 1
-58.1116236448 123.1115597486 -10.8074848434 0.6085323453 1
-56.3338476419 123.1115597486 -10.7874612825 0.6600216234 1
-54.5560716391 123.1115597486 -10.731755159 0.6917348875 1
-52.7782956362 123.1115597486 -10.6950988759 0.739349957 1
-51.0005196333 123.1115597486 -10.6813608243 0.7851865993 1
-49.2227436304 123.1115597486 -10.6581204058 0.8026324856 1
-47.4449676275 123.1115597486 -10.6578218458 0.8479683957 1
-45.6671916246 123.1115597486 -10.6576994148 0.8544768406 1
-43.8894156218 123.1115597486 -10.6677623872 0.8362304987 1
-42.1116396189 123.1115597486 -10.6486466775 0.8779237273 1
-40.333863616 123.1115597486 -10.6016474773 0.8954090815 1
-38.5560876131 123.1115597486 -10.5750706339 0.8870443028 1
-36.7783116102 123.1115597486 -10.5409116575 0.9145405426 1
-35.0005356073 123.1115597486 -10.4516114588 0.9374529569 1
-33.2227596045 123.1115597486 -10.4462395284 0.9366447152 1
-31.4449836016 123.1115597486 -10.4271538896 0.9235683104 1
-29.6672075987 123.1115597486 -10.4161680306 0.9088922474 1
-27.8894315958 123.1115597486 -10.4415255754 0.9656722379 1
-26.1116555929 123.1115597486 -10.4425107515 0.997354223 1
-24.33387959 123.1115597486 -10.4093369513 1.000947592 1
-22.5561035872 123.1115597486 -10.311755116 1.0726601421 1
-20.7783275843 123.1115597486 -10.2503083371 1.0888723209 1
-19.0005515814 123.1115597486 -10.2575561115 1.0331895559 1
-17.2227755785 123.1115597486 -10.2753981087 1.0145828121 1
-15.4449995756 123.1115597486 -10.2657668669 0.997353686 1
-13.6672235727 123.1115597486 -10.2339820504 0.9849794698 1
-11.8894475698 123.1115597486 -10.2138868924 0.9472852972 1
-10.111671567 123.1115597486 -10.1648750977 0.9374790004 1
-8.3338955641 123.1115597486 -10.1362226544 1.0189446864 1
-6.5561195612 123.1115597486 -10.0606060934 1.0139128423 1
-4.7783435583 123.1115597486 -10.0468723377 0.9746534676 1
-3.0005675554 123.1115597486 -10.0308546345 0.9699040739 1
-1.2227915525 123.1115597486 -9.944438367 0.886164643 1
0.5549844503 123.1115597486 -9.848183942 0.871932482 1
2.3327604532 123.1115597486 -9.8927166221 0.9545432742 1
4.1105364561 123.1115597486 -9.9358667622 0.9830961976 1
5.888312459 123.1115597486 -9.8718747063 0.946374761 1
7.6660884619 123.1115597486 -9.8142827152 0.8970007745 1
9.4438644648 123.1115597486 -9.7701030088 0.8257629132 1
11.2216404676 123.1115597486 -9.9176610517 0.8595202298 1
12.9994164705 123.1115597486 0 -0 0
14.7771924734 123.1115597486 0 -0 0
16.5549684763 123.1115597486 0 -0 0
18.3327444792 123.1115597486 0 -0 0
20.1105204821 123.1115597486 0 -0 0
21.8882964849 123.1115597486 0 -0 0
23.6660724878 123.1115597486 0 -0 0
25.4438484907 123.1115597486 0 -0 0
27.2216244936 123.1115597486 0 -0 0
28.9994004965 123.1115597486 0 -0 0
30.7771764994 123.1115597486 0 -0 0
32.5549525023 123.1115597486 0 -0 0
34.3327285051 123.1115597486 0 -0 0
36.110504508 123.1115597486 -9.4741542489 0.572639869 1
37.8882805109 123.1115597486 -9.5005563954 0.5790602047 1
39.6660565138 123.1115597486 -9.5152395286 0.5392090799 1
41.4438325167 123.1115597486 -9.5045429219 0.5261060499 1
43.2216085196 123.1115597486 -9.5043560535 0.5313839196 1
44.9993845224 123.1115597486 -9.5452301218 0.4754786667 1
46.7771605253 123.1115597486 -9.4695376679 0.4061255543 1
48.5549365282 123.1115597486 -9.4703782178 0.3613967876 1
50.3327125311 123.1115597486 -9.4488926441 0.3768150888 1
52.110488534 123.1115597486 -9.4073835096 0.4257660259 1
53.8882645369 123.1115597486 0 -0 0
-125.6671117544 121.3337837458 0 -0 0
-123.8893357515 121.3337837458 -10.4530412529 -0.227065951 1
-122.1115597486 121.3337837458 -10.5346755502 -0.2276988917 1
-120.3337837458 121.3337837458 -10.5601154317 -0.2212650197 1
-118.5560077429 121.3337837458 -10.5488217051 -0.2257605792 1
-116.77823174 121.3337837458 -10.5607777048 -0.2309345436 1
-115.0004557371 121.3337837458 -10.5649911942 -0.2132910493 1
-113.2226797342 121.3337837458 -10.5415631912 -0.2037510937 1
-111.4449037313 121.3337837458 -10.603259844 -0.1714115564 1
-109.6671277285 121.3337837458 -10.6525322521 -0.164653797 1
-107.8893517256 121.3337837458 -10.6557075835 -0.1658380689 1
-106.1115757227 121.3337837458 -10.6645405177 -0.1755399458 1
-104.3337997198 121.3337837458 -10.7022822129 -0.1641683015 1
-102.5560237169 121.3337837458 -10.7492907207 -0.1476881594 1
-100.778247714 121.3337837458 -10.7734583217 -0.1258074592 1
-99.0004717112 121.3337837458 -10.7509532054 -0.0914584094 1
-97.2226957083 121.3337837458 -10.76950115 -0.0776481734 1
-95.4449197054 121.3337837458 -10.7800373792 -0.049154217 1
-93.6671437025 121.3337837458 -10.770562935 -0.04884758 1
-91.8893676996 121.3337837458 -10.822333366 -0.0089159295 1
-90.1115916967 121.3337837458 -10.8563333967 0.0544753414 1
-88.3338156939 121.3337837458 -10.8606686011 0.0958098182 1
-86.556039691 121.3337837458 -10.8465947592 0.1257269125 1
-84.7782636881 121.3337837458 -10.8276007646 0.1711310076 1
-83.0004876852 121.3337837458 -10.8591607662 0.187318463 1
-81.2227116823 121.3337837458 -10.9049521233 0.2050353667 1
-79.4449356794 121.3337837458 -10.9257911752 0.2618927716 1
-77.6671596766 121.3337837458 -10.9092629847 0.2620761273 1
-75.8893836737 121.3337837458 -10.896243768 0.2594719394 1
-74.1116076708 121.3337837458 -10.8648412801 0.2904769292 1
-72.3338316679 121.3337837458 -10.914562602 0.3385731536 1
-70.556055665 121.3337837458 -10.9345417727 0.3862457245 1
-68.7782796621 121.3337837458 0 -0 0
-67.0005036592 121.3337837458 0 -0 0
-65.2227276564 121.3337837458 0 -0 0
-63.4449516535 121.3337837458 0 -0 0
-61.6671756506 121.3337837458 0 -0 0
-59.8893996477 121.3337837458 -10.7702751147 0.5837525891 1
-58.1116236448 121.3337837458 -10.8537215345 0.6320815712 1
-56.3338476419 121.3337837458 -10.8558186136 0.6713231809 1
-54.5560716391 121.3337837458 -10.7799242558 0.7072019643 1
-52.7782956362 121.3337837458 -10.7603947149 0.7763456104 1
-51.0005196333 121.3337837458 -10.7783104572 0.8032995916 1
-49.2227436304 121.3337837458 -10.7472573631 0.82764359 1
-47.4449676275 121.3337837458 -10.7060875987 0.8704088957 1
-45.6671916246 121.3337837458 -10.6815040185 0.8682685004 1
-43.8894156218 121.3337837458 -10.6382085363 0.8804189757 1
-42.1116396189 121.3337837458 -10.6266978706 0.9238545198 1
-40.333863616 121.3337837458 -10.6105305295 0.9356060203 1
-38.5560876131 121.3337837458 -10.5601662656 0.9099824027 1
-36.7783116102 121.3337837458 -10.5549246419 0.8718497873 1
-35.0005356073 121.3337837458 -10.5109117568 0.9359359934 1
-33.2227596045 121.3337837458 -10.4564485589 0.9762854339 1
-31.4449836016 121.3337837458 -10.428648121 0.9753675591 1
-29.6672075987 121.3337837458 -10.4884073563 0.9964941628 1
-27.8894315958 121.3337837458 -10.5023974296 0.9831613509 1
-26.1116555929 121.3337837458 -10.3589734033 1.0131186514 1
-24.33387959 121.3337837458 -10.3852123085 1.0506068929 1
-22.5561035872 121.3337837458 -10.3290751704 1.0631267197 1
-20.7783275843 121.3337837458 -10.2557941068 1.0489424393 1
-19.0005515814 121.3337837458 -10.2567442004 1.048518137 1
-17.2227755785 121.3337837458 -10.2588104927 1.0532909787 1
-15.4449995756 121.3337837458 -10.2443586181 1.0062457773 1
-13.6672235727 121.3337837458 -10.2574666151 0.9804718059 1
-11.8894475698 121.3337837458 -10.1895073639 1.0364938516 1
-10.111671567 121.3337837458 -10.1002587151 0.9757821958 1
-8.3338955641 121.3337837458 -10.0951588537 0.9889502449 1
-6.5561195612 121.3337837458 -10.0288807025 1.0216192856 1
-4.7783435583 121.3337837458 -9.9823103689 0.986948569 1
-3.0005675554 121.3337837458 -9.9672363155 1.0321645539 1
-1.2227915525 121.3337837458 -9.8817150117 1.0038083436 1
0.5549844503 121.3337837458 -9.8926478889 0.9540566824 1
2.3327604532 121.3337837458 -9.8999550889 0.9704001523 1
4.1105364561 121.3337837458 -9.928144299 0.965200413 1
5.888312459 121.3337837458 -9.8836409737 0.9418056131 1
7.6660884619 121.3337837458 -9.7879435741 0.9108088122 1
9.4438644648 121.3337837458 -9.7795352107 0.9077899205 1
11.2216404676 121.3337837458 -9.9536385943 0.8538146569 1
12.9994164705 121.3337837458 0 -0 0
14.7771924734 121.3337837458 0 -0 0
16.5549684763 121.3337837458 0 -0 0
18.3327444792 121.3337837458 0 -0 0
20.1105204821 121.3337837458 0 -0 0
21.8882964849 121.3337837458 0 -0 0
23.6660724878 121.3337837458 0 -0 0
25.4438484907 121.3337837458 0 -0 0
27.2216244936 121.3337837458 0 -0 0
28.9994004965 121.3337837458 0 -0 0
30.7771764994 121.3337837458 0 -0 0
32.5549525023 121.3337837458 0 -0 0
34.3327285051 121.3337837458 0 -0 0
36.110504508 121.3337837458 -9.4615803662 0.5412705394 1
37.8882805109 121.3337837458 -9.4849704227 0.5701969759 1
39.6660565138 121.3337837458 -9.5240996697 0.5717364478 1
41.4438325167 121.3337837458 -9.5392331487 0.534163856 1
43.2216085196 121.3337837458 -9.5330858217 0.5473907043 1
44.9993845224 121.3337837458 -9.5331087328 0.5065999571 1
46.7771605253 121.3337837458 -9.4316334473 0.462411301 1
48.5549365282 121.3337837458 -9.4117029626 0.3863821618 1
50.3327125311 121.3337837458 -9.4544228041 0.3896813561 1
52.110488534 121.3337837458 -9.454424952 0.4212030085 1
53.8882645369 121.3337837458 0 -0 0
-125.6671117544 119.5560077429 0 -0 0
-123.8893357515 119.5560077429 -10.4545140053 -0.2561794349 1
-122.1115597486 119.5560077429 -10.5204413307 -0.237688835 1
-120.3337837458 119.5560077429 -10.5549038788 -0.2233979868 1
-118.5560077429 119.5560077429 -10.5206933525 -0.2406399109 1
-116.77823174 119.5560077429 -10.5406245532 -0.2365808699 1
-115.0004557371 119.5560077429 -10.6021780118 -0.2161735933 1
-113.2226797342 119.5560077429 -10.589977866 -0.2108763924 1
-111.4449037313 119.5560077429 -10.5987320434 -0.189990243 1
-109.6671277285 119.5560077429 -10.6456811256 -0.1710681811 1
-107.8893517256 119.5560077429 -10.67756761 -0.1593160318 1
-106.1115757227 119.5560077429 -10.6720753965 -0.1592658132 1
-104.3337997198 119.5560077429 -10.7062594318 -0.1764308934 1
-102.5560237169 119.5560077429 -10.7556907855 -0.1791242085 1
-100.778247714 119.5560077429 -10.7838835754 -0.1335160281 1
-99.0004717112 119.5560077429 -10.8186475473 -0.0983290517 1
-97.2226957083 119.5560077429 -10.8329999019 -0.0718744659 1
-95.4449197054 119.5560077429 -10.8335748266 -0.0348536276 1
-93.6671437025 119.5560077429 -10.8583209322 -0.0296450477 1
-91.8893676996 119.5560077429 -10.903922557 -0.0152040161 1
-90.1115916967 119.5560077429 -10.881926496 0.0454223524 1
-88.3338156939 119.5560077429 -10.8669197439 0.0812722117 1
-86.556039691 119.5560077429 -10.8606585775 0.0997614747 1
-84.7782636881 119.5560077429 -10.8570808704 0.1137165214 1
-83.0004876852 119.5560077429 -10.9365149888 0.1356005217 1
-81.2227116823 119.5560077429 -10.9596730707 0.195954192 1
-79.4449356794 119.5560077429 -10.9582303891 0.2215432639 1
-77.6671596766 119.5560077429 -10.9307342389 0.2194769716 1
-75.8893836737 119.5560077429 -10.9214259 0.2489741265 1
-74.1116076708 119.5560077429 -10.9297111164 0.3147098179 1
-72.3338316679 119.5560077429 -10.9841657226 0.3573021271 1
-70.556055665 119.5560077429 -10.999561247 0.4012966879 1
-68.7782796621 119.5560077429 0 -0 0
-67.0005036592 119.5560077429 0 -0 0
-65.2227276564 119.5560077429 0 -0 0
-63.4449516535 119.5560077429 0 -0 0
-61.6671756506 119.5560077429 0 -0 0
-59.8893996477 119.5560077429 -10.8652150169 0.6501759482 1
-58.1116236448 119.5560077429 -10.8381455854 0.6685219891 1
-56.3338476419 119.5560077429 -10.8823431911 0.6802071727 1
-54.5560716391 119.5560077429 -10.8392116663 0.7072341829 1
-52.7782956362 119.5560077429 -10.7724416429 0.7583575551 1
-51.0005196333 119.5560077429 -10.7808170717 0.7740284598 1
-49.2227436304 119.5560077429 -10.7809445145 0.8289640195 1
-47.4449676275 119.5560077429 -10.7315503913 0.868611361 1
-45.6671916246 119.5560077429 -10.6988584396 0.8558457771 1
-43.8894156218 119.5560077429 -10.6158308628 0.9076648046 1
-42.1116396189 119.5560077429 -10.5901224922 0.9661681373 1
-40.333863616 119.5560077429 -10.6183059745 0.9665063441 1
-38.5560876131 119.5560077429 -10.5826649382 0.9172738513 1
-36.7783116102 119.5560077429 -10.5490135854 0.9049842092 1
-35.0005356073 119.5560077429 -10.5493973458 0.954249905 1
-33.2227596045 119.5560077429 -10.4906884399 0.953622088 1
-31.4449836016 119.5560077429 -10.4524842275 0.9808279119 1
-29.6672075987 119.5560077429 -10.5374721329 0.9956424258 1
-27.8894315958 119.5560077429 -10.492860696 0.9780796573 1
-26.1116555929 119.5560077429 -10.381818606 1.0051665406 1
-24.33387959 119.5560077429 -10.3690506951 1.0574001152 1
-22.5561035872 119.5560077429 -10.3708033921 1.0364900927 1
-20.7783275843 119.5560077429 -10.3313848929 1.0523536831 1
-19.0005515814 119.5560077429 -10.2572160253 1.0815962656 1
-17.2227755785 119.5560077429 -10.2256116335 1.1001102017 1
-15.4449995756 119.5560077429 -10.1862282168 1.075364633 1
-13.6672235727 119.5560077429 -10.1800150204 1.0400855201 1
-11.8894475698 119.5560077429 -10.1542092778 1.0730795221 1
-10.111671567 119.5560077429 -10.1251150803 1.0509420568 1
-8.3338955641 119.5560077429 -10.0449957777 1.0318239307 1
-6.5561195612 119.5560077429 -9.9928551898 1.0353403328 1
-4.7783435583 119.5560077429 -9.9475793318 1.0475911336 1
-3.0005675554 119.5560077429 -9.9619553134 1.092770425 1
-1.2227915525 119.5560077429 -9.9613109395 1.0784126111 1
0.5549844503 119.5560077429 -9.9399785836 1.0004300344 1
2.3327604532 119.5560077429 -9.9147577893 0.9548651926 1
4.1105364561 119.5560077429 -9.9193027732 0.9429926035 1
5.888312459 119.5560077429 -9.8663166235 0.9546299961 1
7.6660884619 119.5560077429 -9.7890891277 0.9196291274 1
9.4438644648 119.5560077429 -9.7409873322 0.9234192094 1
11.2216404676 119.5560077429 -9.9010727196 0.9288669432 1
12.9994164705 119.5560077429 0 -0 0
14.7771924734 119.5560077429 0 -0 0
16.5549684763 119.5560077429 0 -0 0
18.3327444792 119.5560077429 0 -0 0
20.1105204821 119.5560077429 0 -0 0
21.8882964849 119.5560077429 0 -0 0
23.6660724878 119.5560077429 0 -0 0
25.4438484907 119.5560077429 0 -0 0
27.2216244936 119.5560077429 0 -0 0
28.9994004965 119.5560077429 0 -0 0
30.7771764994 119.5560077429 0 -0 0
32.5549525023 119.5560077429 0 -0 0
34.3327285051 119.5560077429 0 -0 0
36.110504508 119.5560077429 -9.4347479211 0.5772518409 1
37.8882805109 119.5560077429 -9.4189428613 0.5161325292 1
39.6660565138 119.5560077429 -9.5216381614 0.5358666588 1
41.4438325167 119.5560077429 -9.4902807796 0.4980010559 1
43.2216085196 119.5560077429 -9.4870281234 0.4884477654 1
44.9993845224 119.5560077429 -9.4847749626 0.4862306717 1
46.7771605253 119.5560077429 -9.3818763268 0.4926594648 1
48.5549365282 119.5560077429 -9.3629274383 0.461257827 1
50.3327125311 119.5560077429 -9.3702639932 0.4599535963 1
52.110488534 119.5560077429 -9.3163284659 0.5078757279 1
53.8882645369 119.5560077429 0 -0 0
-125.6671117544 117.77823174 0 -0 0
-123.8893357515 117.77823174 -10.453114282 -0.2818969789 1
-122.1115597486 117.77823174 -10.540999006 -0.2598761722 1
-120.3337837458 117.77823174 -10.5445495062 -0.235192535 1
-118.5560077429 117.77823174 -10.506585144 -0.2470604479 1
-116.77823174 117.77823174 -10.5493701389 -0.244891548 1
-115.0004557371 117.77823174 -10.6192460444 -0.223060138 1
-113.2226797342 117.77823174 -10.6372863657 -0.2451381776 1
-111.4449037313 117.77823174 -10.633994331 -0.2301011981 1
-109.6671277285 117.77823174 -10.6517167611 -0.2111761157 1
-107.8893517256 117.77823174 -10.6912097214 -0.2055304383 1
-106.1115757227 117.77823174 -10.6883257902 -0.180468321 1
-104.3337997198 117.77823174 -10.7204399534 -0.1891788465 1
-102.5560237169 117.77823174 -10.7532951465 -0.1795315177 1
-100.778247714 117.77823174 -10.8177368321 -0.1362307664 1
-99.0004717112 117.77823174 -10.8777896156 -0.1009284179 1
-97.2226957083 117.77823174 -10.8496626949 -0.08841155 1
-95.4449197054 117.77823174 -10.8703377894 -0.0548627656 1
-93.6671437025 117.77823174 -10.9108023223 -0.0220302402 1
-91.8893676996 117.77823174 -10.9474228069 -0.0150552773 1
-90.1115916967 117.77823174 -10.9277250128 0.0088312205 1
-88.3338156939 117.77823174 -10.9125270965 0.0621492584 1
-86.556039691 117.77823174 -10.9066081642 0.0775152713 1
-84.7782636881 117.77823174 -10.9575860152 0.0937013284 1
-83.0004876852 117.77823174 -11.0471747503 0.1210456815 1
-81.2227116823 117.77823174 -11.0029492217 0.1629391135 1
-79.4449356794 117.77823174 -10.9872114632 0.1896592631 1
-77.6671596766 117.77823174 -10.9877011874 0.2222525227 1
-75.8893836737 117.77823174 -10.9789656252 0.2730008379 1
-74.1116076708 117.77823174 -10.9678544713 0.3137682041 1
-72.3338316679 117.77823174 -10.9992039774 0.3640488337 1
-70.556055665 117.77823174 -11.0318229001 0.4128483429 1
-68.7782796621 117.77823174 0 -0 0
-67.0005036592 117.77823174 0 -0 0
-65.2227276564 117.77823174 0 -0 0
-63.4449516535 117.77823174 0 -0 0
-61.6671756506 117.77823174 0 -0 0
-59.8893996477 117.77823174 -10.8061481256 0.6814754706 1
-58.1116236448 117.77823174 -10.796336459 0.702826576 1
-56.3338476419 117.77823174 -10.8556253014 0.7043038031 1
-54.5560716391 117.77823174 -10.8643200532 0.7243918014 1
-52.7782956362 117.77823174 -10.7612452885 0.7440268138 1
-51.0005196333 117.77823174 -10.7215282293 0.7772966884 1
-49.2227436304 117.77823174 -10.7974519418 0.830568779 1
-47.4449676275 117.77823174 -10.7954908973 0.8756979525 1
-45.6671916246 117.77823174 -10.741160154 0.8834043958 1
-43.8894156218 117.77823174 -10.6814016347 0.919158108 1
-42.1116396189 117.77823174 -10.6147934208 1.0011999717 1
-40.333863616 117.77823174 -10.6227041844 0.9898721471 1
-38.5560876131 117.77823174 -10.6016438975 0.9598399381 1
-36.7783116102 117.77823174 -10.5813081732 0.9761785753 1
-35.0005356073 117.77823174 -10.5831324673 1.0280913949 1
-33.2227596045 117.77823174 -10.5481508403 0.9835832368 1
-31.4449836016 117.77823174 -10.452744125 0.9891000619 1
-29.6672075987 117.77823174 -10.4678790359 1.0509660418 1
-27.8894315958 117.77823174 -10.4476729024 1.0940888856 1
-26.1116555929 117.77823174 -10.44086903 1.0949651446 1
-24.33387959 117.77823174 -10.4127320857 1.0383440101 1
-22.5561035872 117.77823174 -10.3660063865 1.0351192768 1
-20.7783275843 117.77823174 -10.3962239424 1.1063156118 1
-19.0005515814 117.77823174 -10.2938794681 1.1003129109 1
-17.2227755785 117.77823174 -10.219870978 1.0594299825 1
-15.4449995756 117.77823174 -10.1574282834 1.0728018148 1
-13.6672235727 117.77823174 -10.1475600551 1.1014178332 1
-11.8894475698 117.77823174 -10.1783260449 1.1262277497 1
-10.111671567 117.77823174 -10.1571741137 1.1349596425 1
-8.3338955641 117.77823174 -10.1029514821 1.0905437552 1