TITLE = "B00001"
VARIABLES = "x", "y", "Vx", "Vy", "isValid"
ZONE T="Frame 0", I=51, J=39, F=POINT
-124.778223753 125.778223753 -9.3993866849 -0.3231345543 1
-121.2226717472 125.778223753 -9.7401460868 0.1990863789 1
-117.6671197414 125.778223753 -9.6698248204 0.0590615192 1
-114.1115677357 125.778223753 -9.9822356203 0.3477596291 1
-110.5560157299 125.778223753 -9.9345177363 0.0043118396 1
-107.0004637241 125.778223753 -9.8070522314 -0.0682750623 1
-103.4449117184 125.778223753 -10.002415083 0.2262068954 1
-99.8893597126 125.778223753 -10.0580879713 0.4844846093 1
-96.3338077068 125.778223753 -9.9661887419 0.208645188 1
-92.7782557011 125.778223753 -9.9263596349 0.9172120894 1
-89.2227036953 125.778223753 -10.0728544549 0.2251110575 1
-85.6671516895 125.778223753 -10.2145367566 0.8331872878 1
-82.1115996838 125.778223753 -10.547634762 -0.06159405 1
-78.556047678 125.778223753 -10.3791866911 0.1799828858 1
-75.0004956722 125.778223753 -9.7381736167 0.011809655 1
-71.4449436665 125.778223753 -10.2509661948 0.6688870473 1
-67.8893916607 125.778223753 0 -0 0
-64.3338396549 125.778223753 0 -0 0
-60.7782876492 125.778223753 0 -0 0
-57.2227356434 125.778223753 -9.5616546436 0.4748586761 1
-53.6671836376 125.778223753 -10.3500808901 0.2125305238 1
-50.1116316319 125.778223753 -9.9824652083 0.8784108165 1
-46.5560796261 125.778223753 -10.6612664846 0.9422787141 1
-43.0005276203 125.778223753 -10.4740319321 1.1922841363 1
-39.4449756145 125.778223753 -9.8973079196 1.6313483286 1
-35.8894236088 125.778223753 -10.2577743627 0.9890643106 1
-32.333871603 125.778223753 -9.940716613 2.1414054427 1
-28.7783195972 125.778223753 -9.8640573925 1.6296246248 1
-25.2227675915 125.778223753 -9.3573742841 1.0255785336 1
-21.6672155857 125.778223753 -9.7068348514 1.1586725323 1
-18.1116635799 125.778223753 -9.286012145 1.3332521488 1
-14.5561115742 125.778223753 -10.0804275483 1.2108110896 1
-11.0005595684 125.778223753 -10.5974112117 1.4338275703 1
-7.4450075626 125.778223753 -9.6808306963 0.6535567348 1
-3.8894555569 125.778223753 -9.5856256202 0.5468671869 1
-0.3339035511 125.778223753 -9.4335257618 1.2595472185 1
3.2216484547 125.778223753 -9.6661447893 1.1507419494 1
6.7772004604 125.778223753 -10.6005294144 1.2747830882 1
10.3327524662 125.778223753 -8.615907067 0.3246233237 1
13.888304472 125.778223753 0 -0 0
17.4438564777 125.778223753 0 -0 0
20.9994084835 125.778223753 0 -0 0
24.5549604893 125.778223753 0 -0 0
28.110512495 125.778223753 0 -0 0
31.6660645008 125.778223753 0 -0 0
35.2216165066 125.778223753 0 -0 0
38.7771685123 125.778223753 -9.1390046153 0.6465154605 1
42.3327205181 125.778223753 -8.8870289995 -0.1793382733 1
45.8882725239 125.778223753 -8.3376850145 1.6923966672 1
49.4438245296 125.778223753 -8.0981264683 0.9631747426 1
52.9993765354 125.778223753 0 -0 0
-124.778223753 122.2226717472 -9.3797535975 -0.0943862892 1
-121.2226717472 122.2226717472 -9.6940551872 -0.3348426467 1
-117.6671197414 122.2226717472 -9.6304427477 -0.0538719451 1
-114.1115677357 122.2226717472 -9.6693888239 -0.0635287714 1
-110.5560157299 122.2226717472 -9.9512875962 0.3412578659 1
-107.0004637241 122.2226717472 -10.4313462203 0.4469743207 1
-103.4449117184 122.2226717472 -9.7405743568 0.2746702851 1
-99.8893597126 122.2226717472 -10.0032539624 0.4410650851 1
-96.3338077068 122.2226717472 -10.3254509518 0.1158624793 1
-92.7782557011 122.2226717472 -10.1163382059 -0.2029425678 1
-89.2227036953 122.2226717472 -10.5396797577 0.4570426317 1
-85.6671516895 122.2226717472 -10.4821834108 0.4241099957 1
-82.1115996838 122.2226717472 -10.1117320961 0.404781347 1
-78.556047678 122.2226717472 -10.112609608 -0.0178893224 1
-75.0004956722 122.2226717472 -10.1834364097 0.396678642 1
-71.4449436665 122.2226717472 -10.5404005317 -0.2472786677 1
-67.8893916607 122.2226717472 0 -0 0
-64.3338396549 122.2226717472 0 -0 0
-60.7782876492 122.2226717472 0 -0 0
-57.2227356434 122.2226717472 -10.6319895964 0.3129788026 1
-53.6671836376 122.2226717472 -9.9222469187 0.3715060881 1
-50.1116316319 122.2226717472 -9.911746578 0.6259894081 1
-46.5560796261 122.2226717472 -10.2022802882 0.8205422858 1
-43.0005276203 122.2226717472 -9.6501575155 -0.2692131543 1
-39.4449756145 122.2226717472 -10.0712936978 0.6780758803 1
-35.8894236088 122.2226717472 -10.4097031338 1.4912633469 1
-32.333871603 122.2226717472 -9.5956855492 1.3681662233 1
-28.7783195972 122.2226717472 -9.7337739154 0.4949599769 1
-25.2227675915 122.2226717472 -9.2248131393 0.8442216552 1
-21.6672155857 122.2226717472 -9.762004412 1.6389590888 1
-18.1116635799 122.2226717472 -10.0931785139 1.2259823876 1
-14.5561115742 122.2226717472 -10.1727142074 1.3078826722 1
-11.0005595684 122.2226717472 -9.8422001711 1.1148908964 1
-7.4450075626 122.2226717472 -10.0406812254 1.1785221003 1
-3.8894555569 122.2226717472 -8.7475244726 1.2530023041 1
-0.3339035511 122.2226717472 -9.9357528757 -0.1304527966 1
3.2216484547 122.2226717472 -9.0470292245 2.1201217774 1
6.7772004604 122.2226717472 -10.3285857113 1.2080719002 1
10.3327524662 122.2226717472 -8.5651432784 0.7940955115 1
13.888304472 122.2226717472 0 -0 0
17.4438564777 122.2226717472 0 -0 0
20.9994084835 122.2226717472 0 -0 0
24.5549604893 122.2226717472 0 -0 0
28.110512495 122.2226717472 0 -0 0
31.6660645008 122.2226717472 0 -0 0
35.2216165066 122.2226717472 0 -0 0
38.7771685123 122.2226717472 -8.4107508512 1.1749405823 1
42.3327205181 122.2226717472 -8.8320686068 1.6382907448 1
45.8882725239 122.2226717472 -8.6725231426 0.9416455534 1
49.4438245296 122.2226717472 -8.3711695448 0.9433083419 1
52.9993765354 122.2226717472 0 -0 0
-124.778223753 118.6671197414 -9.7119464963 -0.0530551415 1
-121.2226717472 118.6671197414 -9.7098404677 0.0621097434 1
-117.6671197414 118.6671197414 -10.2662117226 -0.1725927971 1
-114.1115677357 118.6671197414 -9.9620086946 -0.2568984094 1
-110.5560157299 118.6671197414 -9.6429906163 -0.2710878185 1
-107.0004637241 118.6671197414 -10.0637912469 -0.2566326033 1
-103.4449117184 118.6671197414 -9.6451750139 -0.0240122587 1
-99.8893597126 118.6671197414 -9.7890152223 -0.3381045834 1
-96.3338077068 118.6671197414 -9.7855162125 0.071655307 1
-92.7782557011 118.6671197414 -10.5631761052 -0.2119185765 1
-89.2227036953 118.6671197414 -10.5030008633 -0.4109537327 1
-85.6671516895 118.6671197414 -10.0411591659 0.7273754933 1
-82.1115996838 118.6671197414 -10.2419912899 0.3508634825 1
-78.556047678 118.6671197414 -10.3785321444 0.53088081 1
-75.0004956722 118.6671197414 -10.496904639 0.9041017716 1
-71.4449436665 118.6671197414 -10.2078654584 0.4044034028 1
-67.8893916607 118.6671197414 0 -0 0
-64.3338396549 118.6671197414 0 -0 0
-60.7782876492 118.6671197414 -8.940011955 0.4756961757 1
-57.2227356434 118.6671197414 -10.0730045701 0.3306553213 1
-53.6671836376 118.6671197414 -10.4058310435 0.802749214 1
-50.1116316319 118.6671197414 -10.4814736747 0.7175623299 1
-46.5560796261 118.6671197414 -10.6683837134 0.9501774251 1
-43.0005276203 118.6671197414 -10.7792791441 1.3025499936 1
-39.4449756145 118.6671197414 -9.647596726 0.2609903606 1
-35.8894236088 118.6671197414 -10.2673773234 1.6513648446 1
-32.333871603 118.6671197414 -9.4919636405 1.1461528794 1
-28.7783195972 118.6671197414 -9.9993620038 1.2743106667 1
-25.2227675915 118.6671197414 -10.6365581773 1.4600570362 1
-21.6672155857 118.6671197414 -10.5961054298 1.2202727652 1
-18.1116635799 118.6671197414 -10.3068410764 1.2083085249 1
-14.5561115742 118.6671197414 -9.7083393152 1.7883114794 1
-11.0005595684 118.6671197414 -9.8939358455 1.7797434585 1
-7.4450075626 118.6671197414 -9.2716507519 1.4131054575 1
-3.8894555569 118.6671197414 -9.6321414784 1.4756090034 1
-0.3339035511 118.6671197414 -9.4414509638 -0.0432137626 1
3.2216484547 118.6671197414 -10.2673618703 1.5362158266 1
6.7772004604 118.6671197414 -10.3916738512 0.7382358761 1
10.3327524662 118.6671197414 -9.5160240239 0.7220764113 1
13.888304472 118.6671197414 0 -0 0
17.4438564777 118.6671197414 0 -0 0
20.9994084835 118.6671197414 0 -0 0
24.5549604893 118.6671197414 0 -0 0
28.110512495 118.6671197414 0 -0 0
31.6660645008 118.6671197414 0 -0 0
35.2216165066 118.6671197414 0 -0 0
38.7771685123 118.6671197414 -9.1844939501 1.3229648393 1
42.3327205181 118.6671197414 -8.7243730591 0.7327027909 1
45.8882725239 118.6671197414 -7.8341615009 1.36289991 1
49.4438245296 118.6671197414 -8.9264105202 1.7728416065 1
52.9993765354 118.6671197414 0 -0 0
-124.778223753 115.1115677357 -9.2809314062 -0.2983611235 1
-121.2226717472 115.1115677357 -9.665472582 0.1883902192 1
-117.6671197414 115.1115677357 -9.6184235939 -0.8129774018 1
-114.1115677357 115.1115677357 -9.9974005715 0.6831117777 1
-110.5560157299 115.1115677357 -10.1131041053 -0.1215032788 1
-107.0004637241 115.1115677357 -9.6599315634 0.2834476118 1
-103.4449117184 115.1115677357 -9.4989241312 -0.6463785907 1
-99.8893597126 115.1115677357 -10.4603239818 -0.4717574786 1
-96.3338077068 115.1115677357 -10.1880524535 0.223909256 1
-92.7782557011 115.1115677357 -10.6398331181 0.011919151 1
-89.2227036953 115.1115677357 -10.7950357261 -0.0778471212 1
-85.6671516895 115.1115677357 -10.4182884014 0.6034323847 1
-82.1115996838 115.1115677357 -10.9140208233 0.2471718245 1
-78.556047678 115.1115677357 -10.6004201393 0.6840937356 1
-75.0004956722 115.1115677357 -10.5089006133 0.2214482386 1
-71.4449436665 115.1115677357 -10.8379653752 0.3167431701 1
-67.8893916607 115.1115677357 0 -0 0
-64.3338396549 115.1115677357 0 -0 0
-60.7782876492 115.1115677357 -9.2494966113 0.5983001818 1
-57.2227356434 115.1115677357 -10.126700573 0.243751839 1
-53.6671836376 115.1115677357 -10.1585073447 1.7090171017 1
-50.1116316319 115.1115677357 -10.3387527079 1.6374508997 1
-46.5560796261 115.1115677357 -10.6389920312 1.4558698143 1
-43.0005276203 115.1115677357 -10.3078344861 2.0295430932 1
-39.4449756145 115.1115677357 -10.1890745617 1.2375316034 1
-35.8894236088 115.1115677357 -10.530782118 1.257169244 1
-32.333871603 115.1115677357 -10.0285616268 0.6867084038 1
-28.7783195972 115.1115677357 -9.946260943 0.7247634466 1
-25.2227675915 115.1115677357 -10.3442473674 2.0778139752 1
-21.6672155857 115.1115677357 -9.8817202173 0.620252329 1
-18.1116635799 115.1115677357 -10.1348862691 1.2516176014 1
-14.5561115742 115.1115677357 -9.8371381967 0.8446137071 1
-11.0005595684 115.1115677357 -10.3930072278 2.1848858823 1
-7.4450075626 115.1115677357 -9.6991072275 1.4056261861 1
-3.8894555569 115.1115677357 -9.5258113172 0.7547538652 1
-0.3339035511 115.1115677357 -9.529889816 1.7294512637 1
3.2216484547 115.1115677357 -9.4948224529 1.182966367 1
6.7772004604 115.1115677357 -10.5558325998 0.9882651677 1
10.3327524662 115.1115677357 -9.1509117346 1.6639056765 1
13.888304472 115.1115677357 0 -0 0
17.4438564777 115.1115677357 0 -0 0
20.9994084835 115.1115677357 0 -0 0
24.5549604893 115.1115677357 0 -0 0
28.110512495 115.1115677357 0 -0 0
31.6660645008 115.1115677357 0 -0 0
35.2216165066 115.1115677357 -8.6258030835 0.3169815884 1
38.7771685123 115.1115677357 -7.8032786003 1.0549578672 1
42.3327205181 115.1115677357 -7.9915192561 0.3451432017 1
45.8882725239 115.1115677357 -8.1372254191 0.429958316 1
49.4438245296 115.1115677357 -8.9189500132 1.2448880784 1
52.9993765354 115.1115677357 0 -0 0
-124.778223753 111.5560157299 -9.3508420633 -0.534571879 1
-121.2226717472 111.5560157299 -9.4374640795 0.0555391099 1
-117.6671197414 111.5560157299 -9.5155957539 -0.2565301752 1
-114.1115677357 111.5560157299 -9.3745492344 -0.9391774821 1
-110.5560157299 111.5560157299 -9.4044045078 0.122520532 1
-107.0004637241 111.5560157299 -9.7974062231 0.2775736802 1
-103.4449117184 111.5560157299 -9.9684912449 -0.2599969509 1
-99.8893597126 111.5560157299 -9.9495127041 -0.348621481 1
-96.3338077068 111.5560157299 -10.475180976 0.7626790671 1
-92.7782557011 111.5560157299 -10.6246957615 -0.24736873 1
-89.2227036953 111.5560157299 -10.6385935635 -0.4586241537 1
-85.6671516895 111.5560157299 -10.7380548484 -0.3378008001 1
-82.1115996838 111.5560157299 -10.5864781858 0.2033258066 1
-78.556047678 111.5560157299 -10.9069775484 0.3014834999 1
-75.0004956722 111.5560157299 -10.5686056412 0.2059545826 1
-71.4449436665 111.5560157299 -11.0907682806 0.3082069176 1
-67.8893916607 111.5560157299 0 -0 0
-64.3338396549 111.5560157299 0 -0 0
-60.7782876492 111.5560157299 -10.9803011198 0.830841944 1
-57.2227356434 111.5560157299 -11.1592914754 0.8935247865 1
-53.6671836376 111.5560157299 -10.5191912342 1.2595790904 1
-50.1116316319 111.5560157299 -10.9012466781 0.1222459129 1
-46.5560796261 111.5560157299 -10.517892075 1.0108690331 1
-43.0005276203 111.5560157299 -10.1672405199 1.293897119 1
-39.4449756145 111.5560157299 -10.0546242827 1.4790899386 1
-35.8894236088 111.5560157299 -10.0444583899 1.5251514499 1
-32.333871603 111.5560157299 -10.7144602637 -1.1234925138 1
-28.7783195972 111.5560157299 -9.3323944448 0.9015082824 1
-25.2227675915 111.5560157299 -9.733556469 1.5667192998 1
-21.6672155857 111.5560157299 -10.5157562441 1.1880632488 1
-18.1116635799 111.5560157299 -10.1171715662 0.6235222337 1
-14.5561115742 111.5560157299 -9.743304026 1.3947604913 1
-11.0005595684 111.5560157299 -9.5652850043 1.4738553593 1
-7.4450075626 111.5560157299 -9.6790690497 0.8684325678 1
-3.8894555569 111.5560157299 -9.8906719427 1.7530590937 1
-0.3339035511 111.5560157299 -9.2371904725 1.4716688921 1
3.2216484547 111.5560157299 -9.5671117744 2.0052280105 1
6.7772004604 111.5560157299 -10.5343076187 0.7797745446 1
10.3327524662 111.5560157299 -9.121761782 1.0391047727 1
13.888304472 111.5560157299 0 -0 0
17.4438564777 111.5560157299 0 -0 0
20.9994084835 111.5560157299 0 -0 0
24.5549604893 111.5560157299 0 -0 0
28.110512495 111.5560157299 0 -0 0
31.6660645008 111.5560157299 0 -0 0
35.2216165066 111.5560157299 -7.7350208666 0.853395449 1
38.7771685123 111.5560157299 -8.1786550196 1.0808209443 1
42.3327205181 111.5560157299 -7.8635542869 -0.3197887297 1
45.8882725239 111.5560157299 -8.5930912052 0.3893035751 1
49.4438245296 111.5560157299 -8.0192966476 0.7370918682 1
52.9993765354 111.5560157299 0 -0 0
-124.778223753 108.0004637241 -8.9410644174 -0.1181760202 1
-121.2226717472 108.0004637241 -9.3799931196 -0.4833454995 1
-117.6671197414 108.0004637241 -9.5612970161 0.0737401395 1
-114.1115677357 108.0004637241 -9.8259336388 -0.279971109 1
-110.5560157299 108.0004637241 -9.3567142185 -0.6706442788 1
-107.0004637241 108.0004637241 -9.6113836304 0.0150768691 1
-103.4449117184 108.0004637241 -10.2080542063 -0.5079740926 1
-99.8893597126 108.0004637241 -10.4441214693 -0.9382979696 1
-96.3338077068 108.0004637241 -10.6229407377 -0.4328440677 1
-92.7782557011 108.0004637241 -10.6618625305 -0.5320296124 1
-89.2227036953 108.0004637241 -10.3406291485 -0.0843188492 1
-85.6671516895 108.0004637241 -10.6516889112 0.0976570304 1
-82.1115996838 108.0004637241 -10.3048145205 -0.241723524 1
-78.556047678 108.0004637241 -10.9871291559 -0.2292489367 1
-75.0004956722 108.0004637241 -10.6820132947 0.443751258 1
-71.4449436665 108.0004637241 -10.7312378501 0.5172600589 1
-67.8893916607 108.0004637241 0 -0 0
-64.3338396549 108.0004637241 0 -0 0
-60.7782876492 108.0004637241 -10.6918590888 0.6195512163 1
-57.2227356434 108.0004637241 -10.9906127127 1.2503372066 1
-53.6671836376 108.0004637241 -10.8562308686 1.4855695915 1
-50.1116316319 108.0004637241 -10.6868953516 1.6938121381 1
-46.5560796261 108.0004637241 -10.2333486253 0.5898497144 1
-43.0005276203 108.0004637241 -10.4825929163 0.6997560126 1
-39.4449756145 108.0004637241 -10.7409964449 1.1696917917 1
-35.8894236088 108.0004637241 -10.8660590021 1.3519343224 1
-32.333871603 108.0004637241 -10.0635119884 0.188557995 1
-28.7783195972 108.0004637241 -10.2380761518 0.7736560376 1
-25.2227675915 108.0004637241 -10.3790443023 0.7273790116 1
-21.6672155857 108.0004637241 -9.1636030956 1.4514396208 1
-18.1116635799 108.0004637241 -9.9023952811 1.0681998118 1
-14.5561115742 108.0004637241 -10.3366908308 1.4170429473 1
-11.0005595684 108.0004637241 -9.7977495013 1.760935729 1
-7.4450075626 108.0004637241 -10.0658873414 0.9905875389 1
-3.8894555569 108.0004637241 -9.1176954249 0.6042076582 1
-0.3339035511 108.0004637241 -8.9331187953 1.0798151859 1
3.2216484547 108.0004637241 -9.7907680386 0.8437350914 1
6.7772004604 108.0004637241 -10.0829243181 2.194211654 1
10.3327524662 108.0004637241 -9.7750180794 0.9031118802 1
13.888304472 108.0004637241 0 -0 0
17.4438564777 108.0004637241 0 -0 0
20.9994084835 108.0004637241 0 -0 0
24.5549604893 108.0004637241 0 -0 0
28.110512495 108.0004637241 0 -0 0
31.6660645008 108.0004637241 0 -0 0
35.2216165066 108.0004637241 -8.0214495872 1.1391565845 1
38.7771685123 108.0004637241 -8.0236715136 -0.3958503866 1
42.3327205181 108.0004637241 -8.5613142359 0.8765114723 1
45.8882725239 108.0004637241 -8.4758434712 -0.8967204614 1
49.4438245296 108.0004637241 -8.0927366686 1.0441504662 1
52.9993765354 108.0004637241 0 -0 0
-124.778223753 104.4449117184 -8.7957015326 -0.5520567524 1
-121.2226717472 104.4449117184 -9.7814608933 0.3449118545 1
-117.6671197414 104.4449117184 -9.0264270108 -0.461441919 1
-114.1115677357 104.4449117184 -9.9148228367 -0.5684228671 1
-110.5560157299 104.4449117184 -10.0473061645 -0.7808058971 1
-107.0004637241 104.4449117184 -10.0255946432 -0.1704929428 1
-103.4449117184 104.4449117184 -9.9813249947 -1.0972020636 1
-99.8893597126 104.4449117184 -10.0553505756 -0.6000150553 1
-96.3338077068 104.4449117184 -10.6437747471 -0.0919349904 1
-92.7782557011 104.4449117184 -11.070916643 -0.628109579 1
-89.2227036953 104.4449117184 -11.1654693801 -0.1864563816 1
-85.6671516895 104.4449117184 -10.8287487406 -0.1641289462 1
-82.1115996838 104.4449117184 -11.6347726883 0.0727705733 1
-78.556047678 104.4449117184 -11.31532634 0.4920901266 1
-75.0004956722 104.4449117184 -11.3633135484 0.3466275904 1
-71.4449436665 104.4449117184 -10.7894362066 0.3789394488 1
-67.8893916607 104.4449117184 0 -0 0
-64.3338396549 104.4449117184 0 -0 0
-60.7782876492 104.4449117184 -10.1725530543 1.1518395981 1
-57.2227356434 104.4449117184 -10.3684104032 0.9499866767 1
-53.6671836376 104.4449117184 -11.1670400712 0.7611981968 1
-50.1116316319 104.4449117184 -10.7569075573 1.1716256293 1
-46.5560796261 104.4449117184 -10.68677835 1.4095167649 1
-43.0005276203 104.4449117184 -10.2550524201 1.1224143194 1
-39.4449756145 104.4449117184 -10.1794362799 1.4295687401 1
-35.8894236088 104.4449117184 -10.3441149128 1.9070155245 1
-32.333871603 104.4449117184 -9.9800799212 1.501046501 1
-28.7783195972 104.4449117184 -9.9304215769 0.4979110936 1
-25.2227675915 104.4449117184 -9.4730689876 0.959622337 1
-21.6672155857 104.4449117184 -9.4768097271 0.9918414427 1
-18.1116635799 104.4449117184 -9.9409329555 2.5034711375 1
-14.5561115742 104.4449117184 -9.2415416071 1.5607375936 1
-11.0005595684 104.4449117184 -9.4471917682 1.6674951969 1
-7.4450075626 104.4449117184 -9.4596987966 0.9151973303 1
-3.8894555569 104.4449117184 -9.6733536325 1.7545779068 1
-0.3339035511 104.4449117184 -9.6160846659 1.9131728711 1
3.2216484547 104.4449117184 -9.3896457507 1.7160229857 1
6.7772004604 104.4449117184 -10.0364316394 0.193332536 1
10.3327524662 104.4449117184 -9.9246829801 1.9361282241 1
13.888304472 104.4449117184 -5.5891957165 -1.9972026397 1
17.4438564777 104.4449117184 0 -0 0
20.9994084835 104.4449117184 0 -0 0
24.5549604893 104.4449117184 0 -0 0
28.110512495 104.4449117184 0 -0 0
31.6660645008 104.4449117184 0 -0 0
35.2216165066 104.4449117184 -7.8005373414 0.6594509658 1
38.7771685123 104.4449117184 -7.3203230831 0.0621503594 1
42.3327205181 104.4449117184 -8.2936852423 0.0356717973 1
45.8882725239 104.4449117184 -7.8119786619 1.3302145227 1
49.4438245296 104.4449117184 -8.4021385409 1.326239918 1
52.9993765354 104.4449117184 0 -0 0
-124.778223753 100.8893597126 -9.4321449223 -0.3403536561 1
-121.2226717472 100.8893597126 -9.3523884711 -0.6788149357 1
-117.6671197414 100.8893597126 -9.2414991112 -0.1594691993 1
-114.1115677357 100.8893597126 -9.3483298405 -0.7603478657 1
-110.5560157299 100.8893597126 -9.543197091 -0.4447093465 1
-107.0004637241 100.8893597126 -9.3600145464 -0.1325288073 1
-103.4449117184 100.8893597126 -9.8786406472 -0.7008306888 1
-99.8893597126 100.8893597126 -10.0821891949 -0.815378349 1
-96.3338077068 100.8893597126 -10.0672163028 -0.6289166554 1
-92.7782557011 100.8893597126 -10.5473146633 -0.3315039277 1
-89.2227036953 100.8893597126 -10.7584638992 -0.6703131422 1
-85.6671516895 100.8893597126 -11.0589736506 -0.128205483 1
-82.1115996838 100.8893597126 -11.0505550551 0.5783896295 1
-78.556047678 100.8893597126 -11.5101991095 0.1894940077 1
-75.0004956722 100.8893597126 -11.4979823775 0.5306185567 1
-71.4449436665 100.8893597126 -11.3942704028 0.5267058332 1
-67.8893916607 100.8893597126 0 -0 0
-64.3338396549 100.8893597126 0 -0 0
-60.7782876492 100.8893597126 -10.9184139018 1.122651013 1
-57.2227356434 100.8893597126 -11.1704838916 1.2407025121 1
-53.6671836376 100.8893597126 -11.2785447933 1.3661803697 1
-50.1116316319 100.8893597126 -10.9766530985 1.0854233287 1
-46.5560796261 100.8893597126 -11.6328355394 1.973044985 1
-43.0005276203 100.8893597126 -11.0287993823 1.8838783222 1
-39.4449756145 100.8893597126 -10.5329002883 1.1592509176 1
-35.8894236088 100.8893597126 -10.3882057475 1.6214830802 1
-32.333871603 100.8893597126 -10.2015153628 1.5384251974 1
-28.7783195972 100.8893597126 -9.2918556018 1.7245901788 1
-25.2227675915 100.8893597126 -9.7911455342 0.4902772918 1
-21.6672155857 100.8893597126 -9.7519455867 1.7142904516 1
-18.1116635799 100.8893597126 -9.9800589492 2.0752160708 1
-14.5561115742 100.8893597126 -9.5045048863 2.0303917686 1
-11.0005595684 100.8893597126 -8.3737888351 1.2884277086 1
-7.4450075626 100.8893597126 -9.578160698 2.8815071354 1
-3.8894555569 100.8893597126 -9.261876704 1.098651131 1
-0.3339035511 100.8893597126 -9.5868662785 1.3189496704 1
3.2216484547 100.8893597126 -9.6765711762 0.8936943561 1
6.7772004604 100.8893597126 -9.6929778896 1.2544151535 1
10.3327524662 100.8893597126 -9.5556467224 0.5717924921 1
13.888304472 100.8893597126 -6.2879694952 -0.0471377913 1
17.4438564777 100.8893597126 0 -0 0
20.9994084835 100.8893597126 0 -0 0
24.5549604893 100.8893597126 0 -0 0
28.110512495 100.8893597126 0 -0 0
31.6660645008 100.8893597126 0 -0 0
35.2216165066 100.8893597126 -8.2777890311 1.9410776121 1
38.7771685123 100.8893597126 -7.8571363082 -0.3925354681 1
42.3327205181 100.8893597126 -7.5526043512 0.1122959142 1
45.8882725239 100.8893597126 -8.7558851192 1.2911651043 1
49.4438245296 100.8893597126 -7.8326956697 0.6690989748 1
52.9993765354 100.8893597126 0 -0 0
-124.778223753 97.3338077068 -9.0571294419 -0.1280924568 1
-121.2226717472 97.3338077068 -8.974056106 -0.4746131866 1
-117.6671197414 97.3338077068 -8.7254917488 -0.469959614 1
-114.1115677357 97.3338077068 -8.8660553608 -0.1449592258 1
-110.5560157299 97.3338077068 -9.3731717062 -1.0808474352 1
-107.0004637241 97.3338077068 -9.5016637345 -1.1331714289 1
-103.4449117184 97.3338077068 -9.7175559498 -0.6705294847 1
-99.8893597126 97.3338077068 -10.0779087028 -1.0120902372 1
-96.3338077068 97.3338077068 -10.6309994981 -1.0364265677 1
-92.7782557011 97.3338077068 -11.2171940166 -0.8389729336 1
-89.2227036953 97.3338077068 -11.375647282 -0.4057544401 1
-85.6671516895 97.3338077068 -11.6951355742 0.4298735657 1
-82.1115996838 97.3338077068 -11.6461924849 -0.0176076354 1
-78.556047678 97.3338077068 -11.5529333881 0.3677744204 1
-75.0004956722 97.3338077068 -12.0158623172 0.7352900713 1
-71.4449436665 97.3338077068 -11.1951116223 1.1884977275 1
-67.8893916607 97.3338077068 0 -0 0
-64.3338396549 97.3338077068 0 -0 0
-60.7782876492 97.3338077068 -10.6877794863 0.6019391657 1
-57.2227356434 97.3338077068 -11.052497723 0.265864691 1
-53.6671836376 97.3338077068 -11.2221511311 1.815356921 1
-50.1116316319 97.3338077068 -11.0655985896 1.1878707756 1
-46.5560796261 97.3338077068 -10.3031853286 0.7961088219 1
-43.0005276203 97.3338077068 -10.9142459962 1.5842589142 1
-39.4449756145 97.3338077068 -10.5887519903 0.8939954834 1
-35.8894236088 97.3338077068 -9.9450004164 1.1255234848 1
-32.333871603 97.3338077068 -10.0530789787 1.9140603171 1
-28.7783195972 97.3338077068 -10.2690904032 1.8268098313 1
-25.2227675915 97.3338077068 -9.9273740166 1.2595622576 1
-21.6672155857 97.3338077068 -9.8794188181 1.2540009568 1
-18.1116635799 97.3338077068 -10.2128932154 2.2649679512 1
-14.5561115742 97.3338077068 -10.0867379076 1.0528959901 1
-11.0005595684 97.3338077068 -9.6723602227 1.4597744664 1
-7.4450075626 97.3338077068 -9.5055623157 2.5123066891 1
-3.8894555569 97.3338077068 -9.5262528326 1.7772135751 1
-0.3339035511 97.3338077068 -9.3796763323 1.8598016579 1
3.2216484547 97.3338077068 -9.4882217972 1.9050172532 1
6.7772004604 97.3338077068 -9.7991237181 2.5492775356 1
10.3327524662 97.3338077068 -9.6982815937 0.7740162866 1
13.888304472 97.3338077068 -8.0281164702 0.3507204384 1
17.4438564777 97.3338077068 0 -0 0
20.9994084835 97.3338077068 0 -0 0
24.5549604893 97.3338077068 0 -0 0
28.110512495 97.3338077068 0 -0 0
31.6660645008 97.3338077068 0 -0 0
35.2216165066 97.3338077068 -7.4305915619 0.4813657167 1
38.7771685123 97.3338077068 -6.7690336707 0.8310900895 1
42.3327205181 97.3338077068 -7.4975341315 0.6867172341 1
45.8882725239 97.3338077068 -8.7667171484 0.74059619 1
49.4438245296 97.3338077068 -7.8778262732 0.9583816787 1
52.9993765354 97.3338077068 0 -0 0
-124.778223753 93.7782557011 -9.257862225 0.3869017312 1
-121.2226717472 93.7782557011 -8.6488971 -0.6429091762 1
-117.6671197414 93.7782557011 -8.6383520558 -0.4646790895 1
-114.1115677357 93.7782557011 -9.2241608002 -0.8028728383 1
-110.5560157299 93.7782557011 -9.6277097672 -0.8300428011 1
-107.0004637241 93.7782557011 -9.1496699724 -0.7271361781 1
-103.4449117184 93.7782557011 -9.9540481714 -1.3723924918 1
-99.8893597126 93.7782557011 -10.140927304 -1.1439506142 1
-96.3338077068 93.7782557011 -10.5945369462 -1.8894546621 1
-92.7782557011 93.7782557011 -10.8341010114 -1.472274734 1
-89.2227036953 93.7782557011 -11.1641260694 -1.0859946083 1
-85.6671516895 93.7782557011 -11.75123894 -0.5891370119 1
-82.1115996838 93.7782557011 -11.7611476501 -0.2551729636 1
-78.556047678 93.7782557011 -11.9255900723 0.2224875763 1
-75.0004956722 93.7782557011 -12.1796314284 0.776958573 1
-71.4449436665 93.7782557011 -11.8733587968 0.0970689352 1
-67.8893916607 93.7782557011 0 -0 0
-64.3338396549 93.7782557011 -10.197186304 1.5475565643 1
-60.7782876492 93.7782557011 -11.5172147897 0.9194364304 1
-57.2227356434 93.7782557011 -11.2582450176 1.0146607538 1
-53.6671836376 93.7782557011 -11.5184775238 0.6064823595 1
-50.1116316319 93.7782557011 -11.3289570252 1.3171826428 1
-46.5560796261 93.7782557011 -10.7294199103 1.8369991796 1
-43.0005276203 93.7782557011 -10.8271946063 1.8884074427 1
-39.4449756145 93.7782557011 -10.7104568226 1.9228059099 1
-35.8894236088 93.7782557011 -10.2380761518 1.455536884 1
-32.333871603 93.7782557011 -10.4091821456 0.6342483681 1
-28.7783195972 93.7782557011 -9.8751570904 0.7879001532 1
-25.2227675915 93.7782557011 -10.1901010851 2.2150600127 1
-21.6672155857 93.7782557011 -9.6810746336 1.2011806722 1
-18.1116635799 93.7782557011 -9.837068658 2.3589567903 1
-14.5561115742 93.7782557011 -10.7662577503 1.7573206835 1
-11.0005595684 93.7782557011 -10.0139143524 1.694794096 1
-7.4450075626 93.7782557011 -9.4575618619 0.7640910197 1
-3.8894555569 93.7782557011 -9.2947375937 1.7762254084 1
-0.3339035511 93.7782557011 -10.1506892102 2.214463001 1
3.2216484547 93.7782557011 -9.0032794605 1.140270997 1
6.7772004604 93.7782557011 -9.7968565363 1.9219343309 1
10.3327524662 93.7782557011 -9.4202648459 2.2711686215 1
13.888304472 93.7782557011 -10.4549110026 2.5915358054 1
17.4438564777 93.7782557011 0 -0 0
20.9994084835 93.7782557011 0 -0 0
24.5549604893 93.7782557011 0 -0 0
28.110512495 93.7782557011 0 -0 0
31.6660645008 93.7782557011 0 -0 0
35.2216165066 93.7782557011 -7.2740666152 0.3820070842 1
38.7771685123 93.7782557011 -6.7416906201 0.19058631 1
42.3327205181 93.7782557011 -7.455018955 0.0377177794 1
45.8882725239 93.7782557011 -8.0260369325 0.804351915 1
49.4438245296 93.7782557011 -7.4189681163 0.8943566292 1
52.9993765354 93.7782557011 0 -0 0
-124.778223753 90.2227036953 -8.480788444 -0.9989304558 1
-121.2226717472 90.2227036953 -7.9414177407 -0.8903635361 1
-117.6671197414 90.2227036953 -8.2440920216 -1.5394027401 1
-114.1115677357 90.2227036953 -8.3783805955 -0.8459382534 1
-110.5560157299 90.2227036953 -8.6397963632 -1.0091338774 1
-107.0004637241 90.2227036953 -9.0627124045 -1.9834727516 1
-103.4449117184 90.2227036953 -9.1562380664 -2.4188113815 1
-99.8893597126 90.2227036953 -10.096906008 -1.8699838316 1
-96.3338077068 90.2227036953 -10.5320923151 -1.7430473174 1
-92.7782557011 90.2227036953 -11.2406285519 -1.5746021439 1
-89.2227036953 90.2227036953 -11.3862878039 -2.4883942134 1
-85.6671516895 90.2227036953 -12.0370484352 -1.323300391 1
-82.1115996838 90.2227036953 -11.7846715922 -1.2416906788 1
-78.556047678 90.2227036953 -12.4884052449 -0.0108091806 1
-75.0004956722 90.2227036953 -12.6332896373 0.3129196464 1
-71.4449436665 90.2227036953 -12.4431245261 1.3694227486 1
-67.8893916607 90.2227036953 0 -0 0
-64.3338396549 90.2227036953 -10.9405669386 0.034618341 1
-60.7782876492 90.2227036953 -10.7019962831 1.1345110143 1
-57.2227356434 90.2227036953 -11.4261014578 1.9886031609 1
-53.6671836376 90.2227036953 -11.8643629199 1.3727915113 1
-50.1116316319 90.2227036953 -11.1971944714 0.8749316749 1
-46.5560796261 90.2227036953 -10.7457405282 2.1227126452 1
-43.0005276203 90.2227036953 -9.9948806222 0.9652931198 1
-39.4449756145 90.2227036953 -10.8740647806 0.8615997026 1
-35.8894236088 90.2227036953 -10.4354953615 1.2799046672 1
-32.333871603 90.2227036953 -10.8337787051 2.2191396153 1
-28.7783195972 90.2227036953 -9.96127026 1.285935768 1
-25.2227675915 90.2227036953 -9.8935506233 2.1873531257 1
-21.6672155857 90.2227036953 -10.5013650486 1.8819462783 1
-18.1116635799 90.2227036953 -10.0556342493 0.5726472729 1
-14.5561115742 90.2227036953 -9.8694317391 1.1950285686 1