TITLE = "B00002"
VARIABLES = "x", "y", "Vx", "Vy", "isValid"
ZONE T="Frame 0", I=51, J=39, F=POINT
-124.778223753 125.778223753 0.9375676754 1.5168535813 1
-121.2226717472 125.778223753 0.8141290672 1.2811275269 1
-117.6671197414 125.778223753 0.6545865695 1.5040174859 1
-114.1115677357 125.778223753 1.0853266092 1.4443475033 1
-110.5560157299 125.778223753 0.6691072532 1.5637828083 1
-107.0004637241 125.778223753 1.0484341317 1.6614251876 1
-103.4449117184 125.778223753 0.9974188174 1.894540368 1
-99.8893597126 125.778223753 0.9012611027 1.4481096287 1
-96.3338077068 125.778223753 1.2492581153 1.0521024351 1
-92.7782557011 125.778223753 0.9336043156 1.6236067694 1
-89.2227036953 125.778223753 0.7967918601 1.6225352667 1
-85.6671516895 125.778223753 0.6468690867 1.3905469164 1
-82.1115996838 125.778223753 1.085850081 1.2891032273 1
-78.556047678 125.778223753 0.9690556591 1.2506788292 1
-75.0004956722 125.778223753 0.8804924238 2.0679230637 1
-71.4449436665 125.778223753 1.2448528951 1.9886842894 1
-67.8893916607 125.778223753 0 -0 0
-64.3338396549 125.778223753 0 -0 0
-60.7782876492 125.778223753 0 -0 0
-57.2227356434 125.778223753 1.3101534412 1.7789270689 1
-53.6671836376 125.778223753 1.4525220235 2.0877280662 1
-50.1116316319 125.778223753 1.0678236268 1.764799127 1
-46.5560796261 125.778223753 1.1080204334 1.9285625813 1
-43.0005276203 125.778223753 1.301890066 2.3926593188 1
-39.4449756145 125.778223753 1.0829070357 2.1423555287 1
-35.8894236088 125.778223753 1.2113689167 1.7004047913 1
-32.333871603 125.778223753 1.4022921927 1.9888344046 1
-28.7783195972 125.778223753 1.8268520512 2.1961002363 1
-25.2227675915 125.778223753 1.9471528644 1.6993720591 1
-21.6672155857 125.778223753 1.8151176748 2.729078348 1
-18.1116635799 125.778223753 1.1734223211 1.7961561048 1
-14.5561115742 125.778223753 1.0105792886 2.4062618573 1
-11.0005595684 125.778223753 1.7243968778 2.1731114936 1
-7.4450075626 125.778223753 1.240911956 2.0777580959 1
-3.8894555569 125.778223753 1.1550102998 2.9259909188 1
-0.3339035511 125.778223753 1.7837761501 3.0825111744 1
3.2216484547 125.778223753 1.2003589016 1.8908534382 1
6.7772004604 125.778223753 1.1164869057 1.3099888388 1
10.3327524662 125.778223753 1.3101464046 2.0273658702 1
13.888304472 125.778223753 0 -0 0
17.4438564777 125.778223753 0 -0 0
20.9994084835 125.778223753 0 -0 0
24.5549604893 125.778223753 0 -0 0
28.110512495 125.778223753 0 -0 0
31.6660645008 125.778223753 0 -0 0
35.2216165066 125.778223753 0 -0 0
38.7771685123 125.778223753 1.3087252768 2.1991962253 1
42.3327205181 125.778223753 1.6270068522 2.0329452455 1
45.8882725239 125.778223753 1.4095805087 2.2846148359 1
49.4438245296 125.778223753 2.1789472238 2.0179762167 1
52.9993765354 125.778223753 0 -0 0
-124.778223753 122.2226717472 1.1001311735 1.7893324838 1
-121.2226717472 122.2226717472 0.737442597 1.4362546634 1
-117.6671197414 122.2226717472 0.7662543763 1.6085379857 1
-114.1115677357 122.2226717472 0.9050991136 1.6465928906 1
-110.5560157299 122.2226717472 1.0364207038 1.2963639485 1
-107.0004637241 122.2226717472 0.9767031893 1.3338080444 1
-103.4449117184 122.2226717472 0.7776322979 1.2665043979 1
-99.8893597126 122.2226717472 0.8217381028 1.6821533712 1
-96.3338077068 122.2226717472 0.994632993 1.6805942699 1
-92.7782557011 122.2226717472 0.7433390356 1.7197758669 1
-89.2227036953 122.2226717472 0.6244140948 1.4160643007 1
-85.6671516895 122.2226717472 1.138449194 1.8363193838 1
-82.1115996838 122.2226717472 0.8960296278 1.6199725455 1
-78.556047678 122.2226717472 1.097784588 1.0111913393 1
-75.0004956722 122.2226717472 1.0535057643 1.4844779446 1
-71.4449436665 122.2226717472 1.2153315177 1.4475095816 1
-67.8893916607 122.2226717472 0 -0 0
-64.3338396549 122.2226717472 0 -0 0
-60.7782876492 122.2226717472 0 -0 0
-57.2227356434 122.2226717472 1.39939323 1.9416587568 1
-53.6671836376 122.2226717472 1.216118243 2.3458920727 1
-50.1116316319 122.2226717472 1.2563407127 2.018298523 1
-46.5560796261 122.2226717472 1.0814466544 2.2244246929 1
-43.0005276203 122.2226717472 1.2931938677 1.9091785361 1
-39.4449756145 122.2226717472 1.3275423885 2.281210338 1
-35.8894236088 122.2226717472 1.031408055 2.0833890733 1
-32.333871603 122.2226717472 0.9536429073 2.4476462024 1
-28.7783195972 122.2226717472 1.7595332277 2.6889506662 1
-25.2227675915 122.2226717472 1.5638700076 2.667552069 1
-21.6672155857 122.2226717472 1.3498158762 2.3457916279 1
-18.1116635799 122.2226717472 1.0144183342 2.6052865275 1
-14.5561115742 122.2226717472 1.2352932582 2.0894636358 1
-11.0005595684 122.2226717472 1.6531631921 2.5230377217 1
-7.4450075626 122.2226717472 1.4114379089 1.7053952954 1
-3.8894555569 122.2226717472 1.3577544616 2.1856726076 1
-0.3339035511 122.2226717472 1.5362403859 2.8408049316 1
3.2216484547 122.2226717472 1.5239495621 1.4753806571 1
6.7772004604 122.2226717472 1.3205664447 1.7176803243 1
10.3327524662 122.2226717472 1.5401035079 2.3054048318 1
13.888304472 122.2226717472 0 -0 0
17.4438564777 122.2226717472 0 -0 0
20.9994084835 122.2226717472 0 -0 0
24.5549604893 122.2226717472 0 -0 0
28.110512495 122.2226717472 0 -0 0
31.6660645008 122.2226717472 0 -0 0
35.2216165066 122.2226717472 0 -0 0
38.7771685123 122.2226717472 1.673112239 2.0262998864 1
42.3327205181 122.2226717472 1.4081166091 2.181285048 1
45.8882725239 122.2226717472 1.8814302571 2.5744113534 1
49.4438245296 122.2226717472 1.9404979851 2.269719761 1
52.9993765354 122.2226717472 0 -0 0
-124.778223753 118.6671197414 0.7237743831 1.1325353707 1
-121.2226717472 118.6671197414 0.8365607416 1.7960490373 1
-117.6671197414 118.6671197414 0.7550664443 1.5878412601 1
-114.1115677357 118.6671197414 0.9793008867 1.2671724659 1
-110.5560157299 118.6671197414 0.7534979607 1.6011656439 1
-107.0004637241 118.6671197414 0.6121948103 1.5891736708 1
-103.4449117184 118.6671197414 0.8472912223 1.6588070011 1
-99.8893597126 118.6671197414 0.8055046842 1.7333165933 1
-96.3338077068 118.6671197414 0.6384751885 1.8250371468 1
-92.7782557011 118.6671197414 0.9938193628 1.5106547046 1
-89.2227036953 118.6671197414 0.9260968976 1.4821036954 1
-85.6671516895 118.6671197414 0.7719074295 1.2601667198 1
-82.1115996838 118.6671197414 0.8770677818 0.9776009144 1
-78.556047678 118.6671197414 0.9254879512 1.4836517588 1
-75.0004956722 118.6671197414 0.9175190806 1.7005242764 1
-71.4449436665 118.6671197414 1.0167489838 1.5451814872 1
-67.8893916607 118.6671197414 0 -0 0
-64.3338396549 118.6671197414 0 -0 0
-60.7782876492 118.6671197414 2.7147194384 3.3739560622 1
-57.2227356434 118.6671197414 0.9146103907 2.091717986 1
-53.6671836376 118.6671197414 1.2779969066 1.4811812041 1
-50.1116316319 118.6671197414 1.2044565787 1.713045654 1
-46.5560796261 118.6671197414 0.7594580051 1.833697334 1
-43.0005276203 118.6671197414 1.2387624657 1.7238041433 1
-39.4449756145 118.6671197414 1.4146801499 2.4528938893 1
-35.8894236088 118.6671197414 1.3865799003 1.5720271431 1
-32.333871603 118.6671197414 1.91573642 2.4828578859 1
-28.7783195972 118.6671197414 0.8783775649 2.3320632575 1
-25.2227675915 118.6671197414 1.6478252705 3.0671679613 1
-21.6672155857 118.6671197414 1.379820437 2.166719316 1
-18.1116635799 118.6671197414 1.3604129364 2.5296303749 1
-14.5561115742 118.6671197414 1.4524676619 1.5743359929 1
-11.0005595684 118.6671197414 2.0487523258 1.8416444738 1
-7.4450075626 118.6671197414 1.0847977565 2.0877832557 1
-3.8894555569 118.6671197414 1.2531400018 2.5691567679 1
-0.3339035511 118.6671197414 1.099956706 3.0639920857 1
3.2216484547 118.6671197414 0.7519401701 1.877823628 1
6.7772004604 118.6671197414 1.2594197309 2.1354655424 1
10.3327524662 118.6671197414 1.8175715348 2.4515641 1
13.888304472 118.6671197414 0 -0 0
17.4438564777 118.6671197414 0 -0 0
20.9994084835 118.6671197414 0 -0 0
24.5549604893 118.6671197414 0 -0 0
28.110512495 118.6671197414 0 -0 0
31.6660645008 118.6671197414 0 -0 0
35.2216165066 118.6671197414 0 -0 0
38.7771685123 118.6671197414 1.5114770271 2.5013651089 1
42.3327205181 118.6671197414 1.5849933476 2.5369537362 1
45.8882725239 118.6671197414 2.1582164187 1.889215278 1
49.4438245296 118.6671197414 1.7787323882 2.4046779207 1
52.9993765354 118.6671197414 0 -0 0
-124.778223753 115.1115677357 0.9143079527 1.4918237955 1
-121.2226717472 115.1115677357 1.2332607695 1.1874794826 1
-117.6671197414 115.1115677357 1.0739915284 1.2358287336 1
-114.1115677357 115.1115677357 1.1290611272 1.4067683313 1
-110.5560157299 115.1115677357 0.9738167822 1.4746373935 1
-107.0004637241 115.1115677357 1.0996424711 1.4485613542 1
-103.4449117184 115.1115677357 0.903467921 1.3040021655 1
-99.8893597126 115.1115677357 0.8955191255 1.8899734427 1
-96.3338077068 115.1115677357 0.7958568822 1.1930445086 1
-92.7782557011 115.1115677357 1.0656898655 1.8050741646 1
-89.2227036953 115.1115677357 1.0580993874 1.5081514501 1
-85.6671516895 115.1115677357 0.9913148665 1.2828077691 1
-82.1115996838 115.1115677357 0.8841969452 1.5571462795 1
-78.556047678 115.1115677357 1.2013100914 1.616952442 1
-75.0004956722 115.1115677357 0.9121016173 1.331183649 1
-71.4449436665 115.1115677357 1.2260712426 1.4795762955 1
-67.8893916607 115.1115677357 0 -0 0
-64.3338396549 115.1115677357 0 -0 0
-60.7782876492 115.1115677357 1.3284291446 1.6911278622 1
-57.2227356434 115.1115677357 1.4804300759 1.8496316259 1
-53.6671836376 115.1115677357 1.3116609405 2.3822461773 1
-50.1116316319 115.1115677357 0.9632222055 1.8863211443 1
-46.5560796261 115.1115677357 1.1979407768 1.3721241332 1
-43.0005276203 115.1115677357 0.9217732887 1.4651166651 1
-39.4449756145 115.1115677357 1.1756143073 1.4519435003 1
-35.8894236088 115.1115677357 1.4265017255 1.6679067721 1
-32.333871603 115.1115677357 2.0469245898 2.8928780893 1
-28.7783195972 115.1115677357 2.0013755125 2.1033716478 1
-25.2227675915 115.1115677357 1.830006265 2.8102724839 1
-21.6672155857 115.1115677357 1.3809163611 2.6784296295 1
-18.1116635799 115.1115677357 1.4967544191 1.8439836778 1
-14.5561115742 115.1115677357 1.4177986285 2.6185427524 1
-11.0005595684 115.1115677357 1.1533224691 2.8115007246 1
-7.4450075626 115.1115677357 1.0165305027 2.3631211086 1
-3.8894555569 115.1115677357 1.4038174905 2.1952634266 1
-0.3339035511 115.1115677357 1.6556776225 1.955758966 1
3.2216484547 115.1115677357 1.1837020421 2.302553194 1
6.7772004604 115.1115677357 1.3264467404 2.0229758271 1
10.3327524662 115.1115677357 1.5021893361 2.0145489532 1
13.888304472 115.1115677357 0 -0 0
17.4438564777 115.1115677357 0 -0 0
20.9994084835 115.1115677357 0 -0 0
24.5549604893 115.1115677357 0 -0 0
28.110512495 115.1115677357 0 -0 0
31.6660645008 115.1115677357 0 -0 0
35.2216165066 115.1115677357 1.4106150345 2.0678449707 1
38.7771685123 115.1115677357 1.3951182568 1.5963115956 1
42.3327205181 115.1115677357 1.6125484636 2.4403934836 1
45.8882725239 115.1115677357 1.574168355 2.2278149796 1
49.4438245296 115.1115677357 1.8336566318 2.9774738256 1
52.9993765354 115.1115677357 0 -0 0
-124.778223753 111.5560157299 1.2318132887 1.6411883278 1
-121.2226717472 111.5560157299 0.9929598565 1.4960226073 1
-117.6671197414 111.5560157299 1.2383370932 1.2957677647 1
-114.1115677357 111.5560157299 0.6123935613 1.5811779644 1
-110.5560157299 111.5560157299 1.1177042465 1.3015672079 1
-107.0004637241 111.5560157299 1.0857467388 1.310238019 1
-103.4449117184 111.5560157299 0.9555217625 1.5222839451 1
-99.8893597126 111.5560157299 1.0709111304 1.5398671592 1
-96.3338077068 111.5560157299 0.8545162774 1.3023720077 1
-92.7782557011 111.5560157299 0.9314856624 1.068997575 1
-89.2227036953 111.5560157299 1.0607707627 1.1919627958 1
-85.6671516895 111.5560157299 0.9072405324 1.6658119193 1
-82.1115996838 111.5560157299 0.7026657373 1.7757932752 1
-78.556047678 111.5560157299 0.8468137647 1.7675482504 1
-75.0004956722 111.5560157299 0.8043715762 1.4931304053 1
-71.4449436665 111.5560157299 0.7913463881 1.820175924 1
-67.8893916607 111.5560157299 0 -0 0
-64.3338396549 111.5560157299 0 -0 0
-60.7782876492 111.5560157299 1.316357147 1.5307337226 1
-57.2227356434 111.5560157299 0.9653854931 1.7747802732 1
-53.6671836376 111.5560157299 1.3624920601 1.6823472241 1
-50.1116316319 111.5560157299 0.8236595917 1.6554430674 1
-46.5560796261 111.5560157299 1.4777783618 1.6718831704 1
-43.0005276203 111.5560157299 0.9693081508 1.5042971584 1
-39.4449756145 111.5560157299 1.3426669135 1.706963503 1
-35.8894236088 111.5560157299 0.8855152137 1.843183707 1
-32.333871603 111.5560157299 1.9390175287 2.878507314 1
-28.7783195972 111.5560157299 1.7702344579 2.4065209717 1
-25.2227675915 111.5560157299 1.2300019717 3.0269685333 1
-21.6672155857 111.5560157299 2.3868707755 2.305455744 1
-18.1116635799 111.5560157299 1.6043612498 2.0938316031 1
-14.5561115742 111.5560157299 1.2005160535 2.2898234763 1
-11.0005595684 111.5560157299 1.3493793278 2.3507506741 1
-7.4450075626 111.5560157299 1.5174094768 2.5209799838 1
-3.8894555569 111.5560157299 1.8516155479 1.8695501807 1
-0.3339035511 111.5560157299 1.31151731 2.348845535 1
3.2216484547 111.5560157299 0.8775255781 1.3546311538 1
6.7772004604 111.5560157299 1.5400763271 2.0028389981 1
10.3327524662 111.5560157299 1.5370289048 1.7467107917 1
13.888304472 111.5560157299 0 -0 0
17.4438564777 111.5560157299 0 -0 0
20.9994084835 111.5560157299 0 -0 0
24.5549604893 111.5560157299 0 -0 0
28.110512495 111.5560157299 0 -0 0
31.6660645008 111.5560157299 0 -0 0
35.2216165066 111.5560157299 1.7521121811 1.8794907626 1
38.7771685123 111.5560157299 1.5085297736 2.2407907041 1
42.3327205181 111.5560157299 1.2739298596 2.3462416977 1
45.8882725239 111.5560157299 1.21695864 2.2895551177 1
49.4438245296 111.5560157299 1.4411142306 2.2818273559 1
52.9993765354 111.5560157299 0 -0 0
-124.778223753 108.0004637241 1.1211448935 1.0642925382 1
-121.2226717472 108.0004637241 0.801799128 1.3178438122 1
-117.6671197414 108.0004637241 0.9968398803 1.3116376229 1
-114.1115677357 108.0004637241 1.1219550743 1.083260455 1
-110.5560157299 108.0004637241 1.0522896652 1.5067488108 1
-107.0004637241 108.0004637241 0.9683183284 1.4074419183 1
-103.4449117184 108.0004637241 1.0942231452 1.6675735659 1
-99.8893597126 108.0004637241 1.0696412907 1.4859553656 1
-96.3338077068 108.0004637241 0.8585817376 0.921626002 1
-92.7782557011 108.0004637241 1.0669991657 1.386236898 1
-89.2227036953 108.0004637241 0.7393800909 1.3107697692 1
-85.6671516895 108.0004637241 1.2005639303 1.2219301038 1
-82.1115996838 108.0004637241 1.0725278358 1.7100503858 1
-78.556047678 108.0004637241 0.6985472261 1.6282669648 1
-75.0004956722 108.0004637241 0.6610875393 1.4752726238 1
-71.4449436665 108.0004637241 0.7546281712 1.8614312638 1
-67.8893916607 108.0004637241 0 -0 0
-64.3338396549 108.0004637241 0 -0 0
-60.7782876492 108.0004637241 1.1468740673 1.628056969 1
-57.2227356434 108.0004637241 1.0437930457 1.5029477768 1
-53.6671836376 108.0004637241 1.3864202649 1.6037242258 1
-50.1116316319 108.0004637241 1.2155633133 1.5245111145 1
-46.5560796261 108.0004637241 1.1377666387 2.2607746584 1
-43.0005276203 108.0004637241 1.1727027889 2.0655328096 1
-39.4449756145 108.0004637241 0.9233058992 2.2951972709 1
-35.8894236088 108.0004637241 1.3964716396 2.0645486441 1
-32.333871603 108.0004637241 1.8438931671 2.463806495 1
-28.7783195972 108.0004637241 1.4128568291 2.3526213198 1
-25.2227675915 108.0004637241 1.5516695565 1.6443607541 1
-21.6672155857 108.0004637241 1.4614538807 2.1378585561 1
-18.1116635799 108.0004637241 1.5430815295 2.4385700249 1
-14.5561115742 108.0004637241 1.1999413936 1.9793787998 1
-11.0005595684 108.0004637241 1.6211438032 2.1109901345 1
-7.4450075626 108.0004637241 1.2181759809 2.6731344797 1
-3.8894555569 108.0004637241 1.8387550313 2.0792072323 1
-0.3339035511 108.0004637241 1.4987097806 2.2231075972 1
3.2216484547 108.0004637241 1.0680572161 2.0900175997 1
6.7772004604 108.0004637241 1.2423828922 1.5195999452 1
10.3327524662 108.0004637241 1.2618553784 1.9556607288 1
13.888304472 108.0004637241 0 -0 0
17.4438564777 108.0004637241 0 -0 0
20.9994084835 108.0004637241 0 -0 0
24.5549604893 108.0004637241 0 -0 0
28.110512495 108.0004637241 0 -0 0
31.6660645008 108.0004637241 0 -0 0
35.2216165066 108.0004637241 1.2644112008 2.0758514391 1
38.7771685123 108.0004637241 1.0572218755 2.2853676197 1
42.3327205181 108.0004637241 1.2758042306 2.6063274001 1
45.8882725239 108.0004637241 1.6892525254 2.1848945747 1
49.4438245296 108.0004637241 1.5513529072 2.346663069 1
52.9993765354 108.0004637241 0 -0 0
-124.778223753 104.4449117184 1.3066449113 1.6569551198 1
-121.2226717472 104.4449117184 0.9884666091 1.3627638681 1
-117.6671197414 104.4449117184 1.3703417906 1.1445705295 1
-114.1115677357 104.4449117184 1.4730391076 1.3413012511 1
-110.5560157299 104.4449117184 1.1962919926 1.3002201719 1
-107.0004637241 104.4449117184 1.0187312501 1.2198745735 1
-103.4449117184 104.4449117184 0.6804188095 1.4629751773 1
-99.8893597126 104.4449117184 1.2401377862 1.4984129994 1
-96.3338077068 104.4449117184 0.890546765 1.0212381609 1
-92.7782557011 104.4449117184 1.22482134 1.3467296833 1
-89.2227036953 104.4449117184 1.3173970538 1.5404391976 1
-85.6671516895 104.4449117184 1.1364158085 1.2519532911 1
-82.1115996838 104.4449117184 1.0169698795 1.1729465882 1
-78.556047678 104.4449117184 1.0782758838 1.3120315375 1
-75.0004956722 104.4449117184 0.9460834733 1.5567523649 1
-71.4449436665 104.4449117184 1.065034698 1.9072168279 1
-67.8893916607 104.4449117184 0 -0 0
-64.3338396549 104.4449117184 0 -0 0
-60.7782876492 104.4449117184 1.1531222005 1.683935024 1
-57.2227356434 104.4449117184 1.3487787288 2.6186779665 1
-53.6671836376 104.4449117184 1.2766883652 1.6185053346 1
-50.1116316319 104.4449117184 1.1329826121 2.0492800747 1
-46.5560796261 104.4449117184 0.9169770514 2.7899627741 1
-43.0005276203 104.4449117184 1.1700007145 1.8111852901 1
-39.4449756145 104.4449117184 1.409401419 2.4576799165 1
-35.8894236088 104.4449117184 1.2503347231 2.1510713193 1
-32.333871603 104.4449117184 1.8872290104 2.5960643739 1
-28.7783195972 104.4449117184 1.2025431612 2.5065989984 1
-25.2227675915 104.4449117184 1.6228993789 2.3161325529 1
-21.6672155857 104.4449117184 1.6849821054 2.1378362044 1
-18.1116635799 104.4449117184 1.3811786488 2.1985662379 1
-14.5561115742 104.4449117184 1.6938057913 2.0051791679 1
-11.0005595684 104.4449117184 1.0249709669 2.0567694181 1
-7.4450075626 104.4449117184 1.3908327977 1.4043350294 1
-3.8894555569 104.4449117184 1.2258153016 2.6539961655 1
-0.3339035511 104.4449117184 1.6897572328 2.0209132601 1
3.2216484547 104.4449117184 1.0881696237 1.6815934745 1
6.7772004604 104.4449117184 0.9888245125 1.9186690483 1
10.3327524662 104.4449117184 1.1486475796 2.4978318817 1
13.888304472 104.4449117184 2.4674498252 4.2758895791 1
17.4438564777 104.4449117184 0 -0 0
20.9994084835 104.4449117184 0 -0 0
24.5549604893 104.4449117184 0 -0 0
28.110512495 104.4449117184 0 -0 0
31.6660645008 104.4449117184 0 -0 0
35.2216165066 104.4449117184 1.5256822342 2.0371668229 1
38.7771685123 104.4449117184 1.5085484001 2.6218585333 1
42.3327205181 104.4449117184 1.6546499953 2.9066864844 1
45.8882725239 104.4449117184 1.6497057124 2.333642779 1
49.4438245296 104.4449117184 1.8951104748 2.6506480988 1
52.9993765354 104.4449117184 0 -0 0
-124.778223753 100.8893597126 1.4746905133 1.8449508725 1
-121.2226717472 100.8893597126 1.7249816098 1.5644345954 1
-117.6671197414 100.8893597126 1.3907985802 1.4001787135 1
-114.1115677357 100.8893597126 1.1420082223 1.6126157947 1
-110.5560157299 100.8893597126 1.3142192465 1.7958746387 1
-107.0004637241 100.8893597126 1.6372163446 1.2153658731 1
-103.4449117184 100.8893597126 1.3303392508 1.3406203515 1
-99.8893597126 100.8893597126 1.4918516662 1.4602308829 1
-96.3338077068 100.8893597126 1.303179567 1.0543260862 1
-92.7782557011 100.8893597126 0.9140326264 1.2743043199 1
-89.2227036953 100.8893597126 0.8627190822 1.2191491085 1
-85.6671516895 100.8893597126 1.0495066693 1.3601378171 1
-82.1115996838 100.8893597126 1.0039761494 1.7963074618 1
-78.556047678 100.8893597126 1.121314394 1.1475034337 1
-75.0004956722 100.8893597126 1.008102663 1.2540517311 1
-71.4449436665 100.8893597126 0.863743467 1.3090961497 1
-67.8893916607 100.8893597126 0 -0 0
-64.3338396549 100.8893597126 0 -0 0
-60.7782876492 100.8893597126 1.2111778233 1.7596452622 1
-57.2227356434 100.8893597126 1.1950760315 1.0932073837 1
-53.6671836376 100.8893597126 1.1905452553 1.9337971606 1
-50.1116316319 100.8893597126 1.3050664936 1.8246105326 1
-46.5560796261 100.8893597126 1.1913648184 1.4952732728 1
-43.0005276203 100.8893597126 1.3878718848 2.2472357256 1
-39.4449756145 100.8893597126 1.0538244833 1.770985862 1
-35.8894236088 100.8893597126 1.3173195126 2.8793964157 1
-32.333871603 100.8893597126 1.4072468237 2.0729320563 1
-28.7783195972 100.8893597126 1.6026538268 3.1699985608 1
-25.2227675915 100.8893597126 1.9827264526 2.4124422455 1
-21.6672155857 100.8893597126 1.4578575995 2.8145223458 1
-18.1116635799 100.8893597126 1.2986343036 2.3418855961 1
-14.5561115742 100.8893597126 1.2320773702 2.7458664204 1
-11.0005595684 100.8893597126 1.08339629 1.4970310561 1
-7.4450075626 100.8893597126 1.5299493429 1.8800488657 1
-3.8894555569 100.8893597126 1.6248070015 2.63181581 1
-0.3339035511 100.8893597126 1.2422087696 2.6747810563 1
3.2216484547 100.8893597126 1.0259532008 2.3567839824 1
6.7772004604 100.8893597126 0.9465695542 2.1248597899 1
10.3327524662 100.8893597126 1.483817879 2.0588706177 1
13.888304472 100.8893597126 2.917104041 4.7703308443 1
17.4438564777 100.8893597126 0 -0 0
20.9994084835 100.8893597126 0 -0 0
24.5549604893 100.8893597126 0 -0 0
28.110512495 100.8893597126 0 -0 0
31.6660645008 100.8893597126 0 -0 0
35.2216165066 100.8893597126 1.3369219699 1.8604673804 1
38.7771685123 100.8893597126 1.2606390034 2.2037777757 1
42.3327205181 100.8893597126 1.4283780281 2.0927123615 1
45.8882725239 100.8893597126 1.292074902 2.4689344208 1
49.4438245296 100.8893597126 1.4933906234 1.8921113432 1
52.9993765354 100.8893597126 0 -0 0
-124.778223753 97.3338077068 1.4005152311 2.3314230601 1
-121.2226717472 97.3338077068 1.6149137445 1.7614062189 1
-117.6671197414 97.3338077068 1.9229607163 1.7382240373 1
-114.1115677357 97.3338077068 1.3199491509 2.0867505235 1
-110.5560157299 97.3338077068 1.3385203937 1.9844198022 1
-107.0004637241 97.3338077068 1.6656618041 1.6873566306 1
-103.4449117184 97.3338077068 1.7283997671 1.3535044616 1
-99.8893597126 97.3338077068 1.555316336 1.6575528213 1
-96.3338077068 97.3338077068 1.6483065224 1.9106863113 1
-92.7782557011 97.3338077068 1.2951183231 1.4874529307 1
-89.2227036953 97.3338077068 1.0275383102 1.2098554846 1
-85.6671516895 97.3338077068 0.75485362 0.9721744138 1
-82.1115996838 97.3338077068 0.9186156946 1.2754086604 1
-78.556047678 97.3338077068 1.0785607992 1.3340370805 1
-75.0004956722 97.3338077068 1.222754082 1.393932374 1
-71.4449436665 97.3338077068 0.9418137431 1.6227768584 1
-67.8893916607 97.3338077068 0 -0 0
-64.3338396549 97.3338077068 0 -0 0
-60.7782876492 97.3338077068 1.3190437684 1.7730285607 1
-57.2227356434 97.3338077068 1.4635516309 2.1437100153 1
-53.6671836376 97.3338077068 1.1617217483 1.3148937992 1
-50.1116316319 97.3338077068 1.616921122 1.6728593334 1
-46.5560796261 97.3338077068 1.1725906164 2.0965895569 1
-43.0005276203 97.3338077068 1.3109154693 2.2088851434 1
-39.4449756145 97.3338077068 1.8334405652 2.4185624772 1
-35.8894236088 97.3338077068 1.5503767441 2.0055740483 1
-32.333871603 97.3338077068 1.392104914 2.5484060946 1
-28.7783195972 97.3338077068 1.5828351649 2.8204168528 1
-25.2227675915 97.3338077068 1.5971624786 2.1260688523 1
-21.6672155857 97.3338077068 1.3165861831 1.910870782 1
-18.1116635799 97.3338077068 1.3172691523 1.7540124911 1
-14.5561115742 97.3338077068 1.1662160994 2.6188857547 1
-11.0005595684 97.3338077068 1.8315581918 2.5562385783 1
-7.4450075626 97.3338077068 1.2193735915 2.2523097038 1
-3.8894555569 97.3338077068 1.8112564844 2.3402917254 1
-0.3339035511 97.3338077068 1.5004534906 1.7129337575 1
3.2216484547 97.3338077068 0.8553464643 2.0766432694 1
6.7772004604 97.3338077068 1.3300609581 2.4867109358 1
10.3327524662 97.3338077068 1.2872840457 1.5758301087 1
13.888304472 97.3338077068 1.9202035904 2.8642745122 1
17.4438564777 97.3338077068 0 -0 0
20.9994084835 97.3338077068 0 -0 0
24.5549604893 97.3338077068 0 -0 0
28.110512495 97.3338077068 0 -0 0
31.6660645008 97.3338077068 0 -0 0
35.2216165066 97.3338077068 1.5161348769 1.8803405419 1
38.7771685123 97.3338077068 1.5825674962 2.1748752098 1
42.3327205181 97.3338077068 1.8073189946 2.1156089378 1
45.8882725239 97.3338077068 1.3180647079 2.0818709501 1
49.4438245296 97.3338077068 2.0207160959 2.410888939 1
52.9993765354 97.3338077068 0 -0 0
-124.778223753 93.7782557011 1.9285748609 2.0409986249 1
-121.2226717472 93.7782557011 1.6613306757 2.1672845937 1
-117.6671197414 93.7782557011 2.0697597679 1.5862391109 1
-114.1115677357 93.7782557011 1.7731269359 2.1391286028 1
-110.5560157299 93.7782557011 1.8633975252 1.587324687 1
-107.0004637241 93.7782557011 1.9498221012 1.5044478255 1
-103.4449117184 93.7782557011 2.0296004902 1.7785077672 1
-99.8893597126 93.7782557011 2.2274795658 1.497548457 1
-96.3338077068 93.7782557011 1.7810830439 1.6191008285 1
-92.7782557011 93.7782557011 1.663506105 1.6227503675 1
-89.2227036953 93.7782557011 1.4076375648 1.6964009362 1
-85.6671516895 93.7782557011 1.1489464993 1.1234433263 1
-82.1115996838 93.7782557011 1.440553506 1.478868629 1
-78.556047678 93.7782557011 1.2381653161 1.2202317871 1
-75.0004956722 93.7782557011 1.4806442109 1.1497460561 1
-71.4449436665 93.7782557011 0.8828857134 1.3824991939 1
-67.8893916607 93.7782557011 0 -0 0
-64.3338396549 93.7782557011 2.1601029313 2.9337593828 1
-60.7782876492 93.7782557011 1.1601852746 1.797397591 1
-57.2227356434 93.7782557011 1.3307268185 2.0841891821 1
-53.6671836376 93.7782557011 1.2433405668 1.4961643061 1
-50.1116316319 93.7782557011 1.0986742416 1.6274685117 1
-46.5560796261 93.7782557011 1.8640400681 1.6815871277 1
-43.0005276203 93.7782557011 1.2725189419 1.3834111992 1
-39.4449756145 93.7782557011 1.3807539662 2.0354872706 1
-35.8894236088 93.7782557011 1.5549879589 2.611131088 1
-32.333871603 93.7782557011 1.7575770384 2.538312224 1
-28.7783195972 93.7782557011 1.8199593055 2.3427437917 1
-25.2227675915 93.7782557011 1.5478405139 2.2731048046 1
-21.6672155857 93.7782557011 1.1546299067 2.9964816168 1
-18.1116635799 93.7782557011 1.0280755793 2.2483076423 1
-14.5561115742 93.7782557011 2.110736953 2.0793687994 1
-11.0005595684 93.7782557011 1.1523899057 1.8262507624 1
-7.4450075626 93.7782557011 1.8394854634 1.9048136042 1
-3.8894555569 93.7782557011 1.6096034177 2.3608751748 1
-0.3339035511 93.7782557011 1.2035731339 1.5711427325 1
3.2216484547 93.7782557011 1.354317126 2.0207254781 1
6.7772004604 93.7782557011 1.5489749326 1.9952144406 1
10.3327524662 93.7782557011 1.3631697863 2.2474214381 1
13.888304472 93.7782557011 1.4381090282 2.6689122124 1
17.4438564777 93.7782557011 0 -0 0
20.9994084835 93.7782557011 0 -0 0
24.5549604893 93.7782557011 0 -0 0
28.110512495 93.7782557011 0 -0 0
31.6660645008 93.7782557011 0 -0 0
35.2216165066 93.7782557011 1.4067571555 1.9852588195 1
38.7771685123 93.7782557011 1.2669394286 2.1930243914 1
42.3327205181 93.7782557011 1.3826258536 2.3020758054 1
45.8882725239 93.7782557011 1.0046502882 1.9893843673 1
49.4438245296 93.7782557011 1.5619953607 2.7371798803 1
52.9993765354 93.7782557011 0 -0 0
-124.778223753 90.2227036953 2.3669600853 2.5513683872 1
-121.2226717472 90.2227036953 1.7566922138 2.8981191535 1
-117.6671197414 90.2227036953 1.8967076569 2.7692087893 1
-114.1115677357 90.2227036953 2.1650732913 2.6279271629 1
-110.5560157299 90.2227036953 2.1944827721 2.8549215597 1
-107.0004637241 90.2227036953 2.3679259003 2.4129900006 1
-103.4449117184 90.2227036953 2.7959922192 2.4573609216 1
-99.8893597126 90.2227036953 2.0972977752 2.1532800002 1
-96.3338077068 90.2227036953 2.470729457 2.1889569305 1
-92.7782557011 90.2227036953 1.7492304651 1.8778262495 1
-89.2227036953 90.2227036953 1.9390489867 1.9151769372 1
-85.6671516895 90.2227036953 1.4607455244 2.0090824402 1
-82.1115996838 90.2227036953 1.1067183078 1.4222906341 1
-78.556047678 90.2227036953 1.0890951504 1.5278194448 1
-75.0004956722 90.2227036953 1.4000343932 1.1257181655 1
-71.4449436665 90.2227036953 1.1264964744 1.0663274414 1
-67.8893916607 90.2227036953 0 -0 0
-64.3338396549 90.2227036953 1.9453262323 2.6037798561 1
-60.7782876492 90.2227036953 1.4410631804 1.8885296873 1
-57.2227356434 90.2227036953 1.0860959499 1.7423426864 1
-53.6671836376 90.2227036953 1.2725393619 1.2963000667 1
-50.1116316319 90.2227036953 1.4910983305 1.7932901178 1
-46.5560796261 90.2227036953 1.4977373428 1.0599492681 1
-43.0005276203 90.2227036953 1.3691643241 2.9627666707 1
-39.4449756145 90.2227036953 1.3551749077 2.218696996 1
-35.8894236088 90.2227036953 1.6757914098 3.040470903 1
-32.333871603 90.2227036953 2.0790404223 2.692152205 1
-28.7783195972 90.2227036953 2.2000704258 2.6737462545 1
-25.2227675915 90.2227036953 1.3489271884 2.5819615432 1
-21.6672155857 90.2227036953 1.5773556825 2.0745586267 1
-18.1116635799 90.2227036953 1.3624385264 2.5312832983 1
-14.5561115742 90.2227036953 2.2896127906 2.3631542223 1
-11.0005595684 90.2227036953 1.626736286 2.3276621765 1
-7.4450075626 90.2227036953 1.2563524404 2.4389215816 1
-3.8894555569 90.2227036953 1.1634987099 2.2742383955 1
-0.3339035511 90.2227036953 1.7436421215 1.9306668162 1
3.2216484547 90.2227036953 0.998767923 2.508277033 1
6.7772004604 90.2227036953 1.8193032411 1.7375639717 1
10.3327524662 90.2227036953 1.6076661307 2.0629473228 1
13.888304472 90.2227036953 2.1194161806 2.4830695373 1
17.4438564777 90.2227036953 0 -0 0
20.9994084835 90.2227036953 0 -0 0
24.5549604893 90.2227036953 0 -0 0
28.110512495 90.2227036953 0 -0 0
31.6660645008 90.2227036953 0 -0 0
35.2216165066 90.2227036953 1.0861445856 1.8551381512 1
38.7771685123 90.2227036953 1.3222126074 1.9362609547 1
42.3327205181 90.2227036953 1.5127766002 2.1294123659 1