TITLE = "B00095"
VARIABLES = "x", "y", "Vx", "Vy", "isValid"
ZONE T="Frame 0", I=102, J=78, F=POINT
-125.6671117544 126.6671117544 0 -0 0
-123.8893357515 126.6671117544 0 -0 0
-122.1115597486 126.6671117544 0 -0 0
-120.3337837458 126.6671117544 0 -0 0
-118.5560077429 126.6671117544 0 -0 0
-116.77823174 126.6671117544 0 -0 0
-115.0004557371 126.6671117544 0 -0 0
-113.2226797342 126.6671117544 0 -0 0
-111.4449037313 126.6671117544 0 -0 0
-109.6671277285 126.6671117544 0 -0 0
-107.8893517256 126.6671117544 0 -0 0
-106.1115757227 126.6671117544 0 -0 0
-104.3337997198 126.6671117544 0 -0 0
-102.5560237169 126.6671117544 0 -0 0
-100.778247714 126.6671117544 0 -0 0
-99.0004717112 126.6671117544 0 -0 0
-97.2226957083 126.6671117544 0 -0 0
-95.4449197054 126.6671117544 0 -0 0
-93.6671437025 126.6671117544 0 -0 0
-91.8893676996 126.6671117544 0 -0 0
-90.1115916967 126.6671117544 0 -0 0
-88.3338156939 126.6671117544 0 -0 0
-86.556039691 126.6671117544 0 -0 0
-84.7782636881 126.6671117544 0 -0 0
-83.0004876852 126.6671117544 0 -0 0
-81.2227116823 126.6671117544 0 -0 0
-79.4449356794 126.6671117544 0 -0 0
-77.6671596766 126.6671117544 0 -0 0
-75.8893836737 126.6671117544 0 -0 0
-74.1116076708 126.6671117544 0 -0 0
-72.3338316679 126.6671117544 0 -0 0
-70.556055665 126.6671117544 0 -0 0
-68.7782796621 126.6671117544 0 -0 0
-67.0005036592 126.6671117544 0 -0 0
-65.2227276564 126.6671117544 0 -0 0
-63.4449516535 126.6671117544 0 -0 0
-61.6671756506 126.6671117544 0 -0 0
-59.8893996477 126.6671117544 0 -0 0
-58.1116236448 126.6671117544 0 -0 0
-56.3338476419 126.6671117544 0 -0 0
-54.5560716391 126.6671117544 0 -0 0
-52.7782956362 126.6671117544 0 -0 0
-51.0005196333 126.6671117544 0 -0 0
-49.2227436304 126.6671117544 0 -0 0
-47.4449676275 126.6671117544 0 -0 0
-45.6671916246 126.6671117544 0 -0 0
-43.8894156218 126.6671117544 0 -0 0
-42.1116396189 126.6671117544 0 -0 0
-40.333863616 126.6671117544 0 -0 0
-38.5560876131 126.6671117544 0 -0 0
-36.7783116102 126.6671117544 0 -0 0
-35.0005356073 126.6671117544 0 -0 0
-33.2227596045 126.6671117544 0 -0 0
-31.4449836016 126.6671117544 0 -0 0
-29.6672075987 126.6671117544 0 -0 0
-27.8894315958 126.6671117544 0 -0 0
-26.1116555929 126.6671117544 0 -0 0
-24.33387959 126.6671117544 0 -0 0
-22.5561035872 126.6671117544 0 -0 0
-20.7783275843 126.6671117544 0 -0 0
-19.0005515814 126.6671117544 0 -0 0
-17.2227755785 126.6671117544 0 -0 0
-15.4449995756 126.6671117544 0 -0 0
-13.6672235727 126.6671117544 0 -0 0
-11.8894475698 126.6671117544 0 -0 0
-10.111671567 126.6671117544 0 -0 0
-8.3338955641 126.6671117544 0 -0 0
-6.5561195612 126.6671117544 0 -0 0
-4.7783435583 126.6671117544 0 -0 0
-3.0005675554 126.6671117544 0 -0 0
-1.2227915525 126.6671117544 0 -0 0
0.5549844503 126.6671117544 0 -0 0
2.3327604532 126.6671117544 0 -0 0
4.1105364561 126.6671117544 0 -0 0
5.888312459 126.6671117544 0 -0 0
7.6660884619 126.6671117544 0 -0 0
9.4438644648 126.6671117544 0 -0 0
11.2216404676 126.6671117544 0 -0 0
12.9994164705 126.6671117544 0 -0 0
14.7771924734 126.6671117544 0 -0 0
16.5549684763 126.6671117544 0 -0 0
18.3327444792 126.6671117544 0 -0 0
20.1105204821 126.6671117544 0 -0 0
21.8882964849 126.6671117544 0 -0 0
23.6660724878 126.6671117544 0 -0 0
25.4438484907 126.6671117544 0 -0 0
27.2216244936 126.6671117544 0 -0 0
28.9994004965 126.6671117544 0 -0 0
30.7771764994 126.6671117544 0 -0 0
32.5549525023 126.6671117544 0 -0 0
34.3327285051 126.6671117544 0 -0 0
36.110504508 126.6671117544 0 -0 0
37.8882805109 126.6671117544 0 -0 0
39.6660565138 126.6671117544 0 -0 0
41.4438325167 126.6671117544 0 -0 0
43.2216085196 126.6671117544 0 -0 0
44.9993845224 126.6671117544 0 -0 0
46.7771605253 126.6671117544 0 -0 0
48.5549365282 126.6671117544 0 -0 0
50.3327125311 126.6671117544 0 -0 0
52.110488534 126.6671117544 0 -0 0
53.8882645369 126.6671117544 0 -0 0
-125.6671117544 124.8893357515 0 -0 0
-123.8893357515 124.8893357515 -10.3502829474 -0.504627815 1
-122.1115597486 124.8893357515 -10.3591652836 -0.3110292571 1
-120.3337837458 124.8893357515 -10.4607128822 -0.2687497377 1
-118.5560077429 124.8893357515 -10.3429700196 -0.2931013433 1
-116.77823174 124.8893357515 -10.1947539994 -0.4631372956 1
-115.0004557371 124.8893357515 -10.4025631497 -0.4429411857 1
-113.2226797342 124.8893357515 -10.5449769409 -0.3436846943 1
-111.4449037313 124.8893357515 -10.558700673 -0.2659860897 1
-109.6671277285 124.8893357515 -10.584942442 -0.3375559826 1
-107.8893517256 124.8893357515 -10.7785066332 -0.4537050937 1
-106.1115757227 124.8893357515 -10.9331692563 -0.152146701 1
-104.3337997198 124.8893357515 -11.0004877134 -0.1298313169 1
-102.5560237169 124.8893357515 -11.0199563968 -0.0500205978 1
-100.778247714 124.8893357515 -10.9408000752 0.1109969838 1
-99.0004717112 124.8893357515 -11.1738228601 -0.0499031786 1
-97.2226957083 124.8893357515 -11.2396678489 -0.0234552099 1
-95.4449197054 124.8893357515 -11.2516546354 -0.0502239336 1
-93.6671437025 124.8893357515 -11.2559805321 -0.058606522 1
-91.8893676996 124.8893357515 -11.1434828731 -0.0418628243 1
-90.1115916967 124.8893357515 -11.1102532271 -0.086527959 1
-88.3338156939 124.8893357515 -11.2689739738 -0.0450503271 1
-86.556039691 124.8893357515 -10.9791131152 0.0331823919 1
-84.7782636881 124.8893357515 -10.9366717864 -0.0603320121 1
-83.0004876852 124.8893357515 -11.1023775462 0.1074328802 1
-81.2227116823 124.8893357515 -10.8351098684 0.3067549102 1
-79.4449356794 124.8893357515 -10.9483793442 0.3146520703 1
-77.6671596766 124.8893357515 -10.8335562113 0.2843493138 1
-75.8893836737 124.8893357515 -10.425242247 0.2882785627 1
-74.1116076708 124.8893357515 -10.5297496697 0.1920950188 1
-72.3338316679 124.8893357515 -10.5098370843 0.1860493597 1
-70.556055665 124.8893357515 -11.1016042975 0.1808915046 1
-68.7782796621 124.8893357515 0 -0 0
-67.0005036592 124.8893357515 0 -0 0
-65.2227276564 124.8893357515 0 -0 0
-63.4449516535 124.8893357515 0 -0 0
-61.6671756506 124.8893357515 0 -0 0
-59.8893996477 124.8893357515 -10.6229733895 0.1399909454 1
-58.1116236448 124.8893357515 -10.5865075546 0.8476967742 1
-56.3338476419 124.8893357515 -10.5331820347 0.8821092043 1
-54.5560716391 124.8893357515 -10.9591074536 0.6299542423 1
-52.7782956362 124.8893357515 -10.7730480704 0.5904713057 1
-51.0005196333 124.8893357515 -10.3683082332 0.7014238993 1
-49.2227436304 124.8893357515 -10.4872868617 0.8042244471 1
-47.4449676275 124.8893357515 -10.4122473734 0.7917393449 1
-45.6671916246 124.8893357515 -10.2112456754 0.5874212692 1
-43.8894156218 124.8893357515 -10.2583937975 0.5216278303 1
-42.1116396189 124.8893357515 -10.8147748601 0.8004340967 1
-40.333863616 124.8893357515 -10.8000330173 1.391754544 1
-38.5560876131 124.8893357515 -10.1141256414 1.2385396143 1
-36.7783116102 124.8893357515 -9.9971130693 0.9177559683 1
-35.0005356073 124.8893357515 -10.4640693542 0.6597057012 1
-33.2227596045 124.8893357515 -10.5183027254 0.7878029363 1
-31.4449836016 124.8893357515 -10.1867222368 1.3311075046 1
-29.6672075987 124.8893357515 -10.7296430446 1.2182117657 1
-27.8894315958 124.8893357515 -11.181502365 0.9382370347 1
-26.1116555929 124.8893357515 -10.9781981043 0.9319951995 1
-24.33387959 124.8893357515 -10.7928733073 0.9864132912 1
-22.5561035872 124.8893357515 -10.403468137 1.0783396715 1
-20.7783275843 124.8893357515 -10.0615432994 1.1766868797 1
-19.0005515814 124.8893357515 -9.9820719506 1.0842879586 1
-17.2227755785 124.8893357515 -10.0239906206 0.894435361 1
-15.4449995756 124.8893357515 -10.1672406659 0.6883345175 1
-13.6672235727 124.8893357515 -10.4081734984 0.8067919191 1
-11.8894475698 124.8893357515 -10.3400245149 0.8163358126 1
-10.111671567 124.8893357515 -10.0412884799 0.9145169155 1
-8.3338955641 124.8893357515 -10.0031945269 1.3394084724 1
-6.5561195612 124.8893357515 -9.9102400123 1.2293350911 1
-4.7783435583 124.8893357515 -9.8524224903 0.7713227159 1
-3.0005675554 124.8893357515 -10.2735308564 0.662301812 1
-1.2227915525 124.8893357515 -9.8634470117 0.9578503442 1
0.5549844503 124.8893357515 -10.0596087458 1.1376593006 1
2.3327604532 124.8893357515 -10.1930456926 1.1796280886 1
4.1105364561 124.8893357515 -9.9574253649 1.0313304477 1
5.888312459 124.8893357515 -9.6350766064 1.0607912224 1
7.6660884619 124.8893357515 -9.3971580118 1.1075412646 1
9.4438644648 124.8893357515 -9.5139586565 0.672275288 1
11.2216404676 124.8893357515 -9.9341992657 0.3994044213 1
12.9994164705 124.8893357515 0 -0 0
14.7771924734 124.8893357515 0 -0 0
16.5549684763 124.8893357515 0 -0 0
18.3327444792 124.8893357515 0 -0 0
20.1105204821 124.8893357515 0 -0 0
21.8882964849 124.8893357515 0 -0 0
23.6660724878 124.8893357515 0 -0 0
25.4438484907 124.8893357515 0 -0 0
27.2216244936 124.8893357515 0 -0 0
28.9994004965 124.8893357515 0 -0 0
30.7771764994 124.8893357515 0 -0 0
32.5549525023 124.8893357515 0 -0 0
34.3327285051 124.8893357515 0 -0 0
36.110504508 124.8893357515 0 -0 0
37.8882805109 124.8893357515 -9.2497352874 0.7713728339 1
39.6660565138 124.8893357515 -9.3461436462 0.7613979259 1
41.4438325167 124.8893357515 -9.5021508628 0.6340896908 1
43.2216085196 124.8893357515 -9.6243771358 0.5237671517 1
44.9993845224 124.8893357515 -9.7907687957 0.5240964983 1
46.7771605253 124.8893357515 -9.6893114095 0.3402967195 1
48.5549365282 124.8893357515 -9.7862724978 0.1862054413 1
50.3327125311 124.8893357515 -9.4293595234 0.0917631389 1
52.110488534 124.8893357515 -9.2016163086 0.4243746258 1
53.8882645369 124.8893357515 0 -0 0
-125.6671117544 123.1115597486 0 -0 0
-123.8893357515 123.1115597486 -10.5345438115 -0.4733756809 1
-122.1115597486 123.1115597486 -10.7230188809 -0.3035860226 1
-120.3337837458 123.1115597486 -10.6571380935 -0.2064244623 1
-118.5560077429 123.1115597486 -10.5824623184 -0.2918355066 1
-116.77823174 123.1115597486 -10.5131420064 -0.2941008388 1
-115.0004557371 123.1115597486 -10.8076810195 -0.3104980066 1
-113.2226797342 123.1115597486 -10.7242875815 -0.4949092246 1
-111.4449037313 123.1115597486 -10.5409274089 -0.4753030748 1
-109.6671277285 123.1115597486 -10.7131255936 -0.5218970354 1
-107.8893517256 123.1115597486 -10.7136668677 -0.4579321865 1
-106.1115757227 123.1115597486 -10.6983379287 -0.3488568688 1
-104.3337997198 123.1115597486 -10.8799883625 -0.3882109307 1
-102.5560237169 123.1115597486 -10.7991380535 -0.1722998526 1
-100.778247714 123.1115597486 -10.5065078191 -0.0693990688 1
-99.0004717112 123.1115597486 -10.6916020735 -0.0846621386 1
-97.2226957083 123.1115597486 -11.1077100981 -0.1550549752 1
-95.4449197054 123.1115597486 -11.1934376016 -0.2084635477 1
-93.6671437025 123.1115597486 -11.2209466393 -0.1721881611 1
-91.8893676996 123.1115597486 -11.0658458419 -0.1391704426 1
-90.1115916967 123.1115597486 -10.9540054443 0.1216735433 1
-88.3338156939 123.1115597486 -10.973491311 0.1275530972 1
-86.556039691 123.1115597486 -10.7540533598 0.1764295733 1
-84.7782636881 123.1115597486 -10.9158642373 0.0766418315 1
-83.0004876852 123.1115597486 -11.285608844 -0.0286173608 1
-81.2227116823 123.1115597486 -10.9740726794 0.1693113897 1
-79.4449356794 123.1115597486 -10.7915559207 0.309600179 1
-77.6671596766 123.1115597486 -10.7636101407 0.1853133415 1
-75.8893836737 123.1115597486 -10.6990925621 0.2694184546 1
-74.1116076708 123.1115597486 -10.7402666222 0.3078646653 1
-72.3338316679 123.1115597486 -10.750443434 0.1336259632 1
-70.556055665 123.1115597486 -11.2142079202 0.1168049406 1
-68.7782796621 123.1115597486 0 -0 0
-67.0005036592 123.1115597486 0 -0 0
-65.2227276564 123.1115597486 0 -0 0
-63.4449516535 123.1115597486 0 -0 0
-61.6671756506 123.1115597486 0 -0 0
-59.8893996477 123.1115597486 -10.5385031311 0.3388361387 1
-58.1116236448 123.1115597486 -10.5196487508 0.9728857352 1
-56.3338476419 123.1115597486 -10.5034162564 1.1136041071 1
-54.5560716391 123.1115597486 -10.6940950845 1.0672034586 1
-52.7782956362 123.1115597486 -10.5360688297 0.7572295428 1
-51.0005196333 123.1115597486 -10.3602463998 0.8116419067 1
-49.2227436304 123.1115597486 -10.291636331 1.0844597916 1
-47.4449676275 123.1115597486 -10.3583333253 0.7681810352 1
-45.6671916246 123.1115597486 -10.4872009452 0.4295496642 1
-43.8894156218 123.1115597486 -10.4738351986 0.303624685 1
-42.1116396189 123.1115597486 -10.9618453267 0.6553540295 1
-40.333863616 123.1115597486 -11.1688268145 0.7890745008 1
-38.5560876131 123.1115597486 -10.3391052082 0.9774436065 1
-36.7783116102 123.1115597486 -9.9392182224 0.8289598132 1
-35.0005356073 123.1115597486 -10.2312126746 0.4224500957 1
-33.2227596045 123.1115597486 -10.3235471584 0.8561681431 1
-31.4449836016 123.1115597486 -10.4783085854 1.7119067035 1
-29.6672075987 123.1115597486 -10.8342292241 1.3879169394 1
-27.8894315958 123.1115597486 -11.1319729233 0.9410121383 1
-26.1116555929 123.1115597486 -10.934780191 1.0780489873 1
-24.33387959 123.1115597486 -11.1126030439 1.5436678384 1
-22.5561035872 123.1115597486 -10.7200762401 1.570364965 1
-20.7783275843 123.1115597486 -10.3673402404 1.5153783923 1
-19.0005515814 123.1115597486 -10.562549733 1.3489394783 1
-17.2227755785 123.1115597486 -10.1919201862 1.0059292287 1
-15.4449995756 123.1115597486 -9.813498011 0.8162241211 1
-13.6672235727 123.1115597486 -10.1750991636 0.742659533 1
-11.8894475698 123.1115597486 -10.3450277202 0.609792499 1
-10.111671567 123.1115597486 -10.0651116989 0.8776759118 1
-8.3338955641 123.1115597486 -10.1996712882 1.3129690953 1
-6.5561195612 123.1115597486 -10.3744756074 1.310755313 1
-4.7783435583 123.1115597486 -10.2719900868 0.7446442046 1
-3.0005675554 123.1115597486 -9.9497100614 0.5557839428 1
-1.2227915525 123.1115597486 -9.8182678098 0.730117153 1
0.5549844503 123.1115597486 -9.9418143333 1.0344749924 1
2.3327604532 123.1115597486 -9.7985356491 1.4245431518 1
4.1105364561 123.1115597486 -9.7067481671 1.2667517355 1
5.888312459 123.1115597486 -9.5268704775 0.9595715385 1
7.6660884619 123.1115597486 -9.4761410684 0.8150356092 1
9.4438644648 123.1115597486 -9.6386664849 0.7632036048 1
11.2216404676 123.1115597486 -9.8908830204 0.5935771879 1
12.9994164705 123.1115597486 0 -0 0
14.7771924734 123.1115597486 0 -0 0
16.5549684763 123.1115597486 0 -0 0
18.3327444792 123.1115597486 0 -0 0
20.1105204821 123.1115597486 0 -0 0
21.8882964849 123.1115597486 0 -0 0
23.6660724878 123.1115597486 0 -0 0
25.4438484907 123.1115597486 0 -0 0
27.2216244936 123.1115597486 0 -0 0
28.9994004965 123.1115597486 0 -0 0
30.7771764994 123.1115597486 0 -0 0
32.5549525023 123.1115597486 0 -0 0
34.3327285051 123.1115597486 0 -0 0
36.110504508 123.1115597486 -9.4339188267 0.6445686424 1
37.8882805109 123.1115597486 -9.0720670843 0.5514780932 1
39.6660565138 123.1115597486 -9.2507548301 0.4982341939 1
41.4438325167 123.1115597486 -9.2529141987 0.5330074734 1
43.2216085196 123.1115597486 -9.5879800341 0.520452206 1
44.9993845224 123.1115597486 -10.0212054934 0.3497303534 1
46.7771605253 123.1115597486 -9.5906620615 0.1451473685 1
48.5549365282 123.1115597486 -9.5160421321 0.1544693109 1
50.3327125311 123.1115597486 -9.4081997165 0.4969611975 1
52.110488534 123.1115597486 0 -0 0
53.8882645369 123.1115597486 0 -0 0
-125.6671117544 121.3337837458 0 -0 0
-123.8893357515 121.3337837458 -10.1584685892 -0.4323806135 1
-122.1115597486 121.3337837458 -10.624515591 -0.2149946352 1
-120.3337837458 121.3337837458 -10.6499354253 -0.1695419323 1
-118.5560077429 121.3337837458 -10.6713529817 -0.2844166151 1
-116.77823174 121.3337837458 -10.8727069375 -0.3887865714 1
-115.0004557371 121.3337837458 -10.9937089 -0.5087632634 1
-113.2226797342 121.3337837458 -10.7575172275 -0.581725004 1
-111.4449037313 121.3337837458 -10.6374045009 -0.4152388359 1
-109.6671277285 121.3337837458 -10.6945805129 -0.5339840578 1
-107.8893517256 121.3337837458 -10.474244734 -0.4674273938 1
-106.1115757227 121.3337837458 -10.4664793126 -0.3703775251 1
-104.3337997198 121.3337837458 -10.8576414757 -0.5413442397 1
-102.5560237169 121.3337837458 -10.9563194626 -0.5667211157 1
-100.778247714 121.3337837458 -10.8575913577 -0.4404667899 1
-99.0004717112 121.3337837458 -10.717314024 -0.1583112113 1
-97.2226957083 121.3337837458 -10.9918058491 -0.159798999 1
-95.4449197054 121.3337837458 -11.1177394199 -0.0487418736 1
-93.6671437025 121.3337837458 -11.0143360245 -0.0901464764 1
-91.8893676996 121.3337837458 -11.0511498212 -0.1059135897 1
-90.1115916967 121.3337837458 -10.9326995793 0.2384312298 1
-88.3338156939 121.3337837458 -10.7839394212 0.3263281254 1
-86.556039691 121.3337837458 -10.8737851898 0.2772282663 1
-84.7782636881 121.3337837458 -11.0796569225 0.1922267574 1
-83.0004876852 121.3337837458 -11.4068613964 0.2708876271 1
-81.2227116823 121.3337837458 -11.3809804767 0.190854957 1
-79.4449356794 121.3337837458 -10.9154747491 0.1084438312 1
-77.6671596766 121.3337837458 -10.8854297421 0.0698200598 1
-75.8893836737 121.3337837458 -11.1943769555 0.2507903212 1
-74.1116076708 121.3337837458 -11.178343501 0.2134152032 1
-72.3338316679 121.3337837458 -11.1824431509 0.0494005669 1
-70.556055665 121.3337837458 -11.3482792174 0.1850341128 1
-68.7782796621 121.3337837458 0 -0 0
-67.0005036592 121.3337837458 0 -0 0
-65.2227276564 121.3337837458 0 -0 0
-63.4449516535 121.3337837458 0 -0 0
-61.6671756506 121.3337837458 0 -0 0
-59.8893996477 121.3337837458 -10.3607962655 0.4162898813 1
-58.1116236448 121.3337837458 -10.5583011611 0.9625972319 1
-56.3338476419 121.3337837458 -10.5883934222 0.8392912747 1
-54.5560716391 121.3337837458 -10.2673477308 0.8775384454 1
-52.7782956362 121.3337837458 -10.3110133701 0.7583550492 1
-51.0005196333 121.3337837458 -10.5494488957 0.6297351552 1
-49.2227436304 121.3337837458 -10.5136446181 0.5711687276 1
-47.4449676275 121.3337837458 -10.676160011 0.6835446715 1
-45.6671916246 121.3337837458 -10.7544228008 0.9915468032 1
-43.8894156218 121.3337837458 -10.6035233213 0.7996064342 1
-42.1116396189 121.3337837458 -10.8165504682 1.1339348195 1
-40.333863616 121.3337837458 -11.0241935132 1.2781657451 1
-38.5560876131 121.3337837458 -10.9585719073 0.7784924495 1
-36.7783116102 121.3337837458 -10.5946724878 0.687187532 1
-35.0005356073 121.3337837458 -10.1422403906 0.7193460853 1
-33.2227596045 121.3337837458 -9.8280622931 1.1441760687 1
-31.4449836016 121.3337837458 -10.3790506621 1.3781052729 1
-29.6672075987 121.3337837458 -10.3839106732 0.9871192386 1
-27.8894315958 121.3337837458 -10.1678879037 0.7997711075 1
-26.1116555929 121.3337837458 -10.5554974187 1.1121635734 1
-24.33387959 121.3337837458 -11.0848963983 1.4661067002 1
-22.5561035872 121.3337837458 -10.8741417433 1.4302866711 1
-20.7783275843 121.3337837458 -10.4674444415 1.3382400077 1
-19.0005515814 121.3337837458 -10.6979312571 1.3058809825 1
-17.2227755785 121.3337837458 -10.5262471396 0.8937609163 1
-15.4449995756 121.3337837458 -9.8430704771 0.7902200544 1
-13.6672235727 121.3337837458 -9.8404056331 1.1731113206 1
-11.8894475698 121.3337837458 -10.0975666642 0.9279771703 1
-10.111671567 121.3337837458 -10.2201136922 0.9112048337 1
-8.3338955641 121.3337837458 -10.1848335053 1.1883743903 1
-6.5561195612 121.3337837458 -10.4284712762 1.1420596584 1
-4.7783435583 121.3337837458 -10.6998872899 0.8003653635 1
-3.0005675554 121.3337837458 -10.4379521641 0.6840744901 1
-1.2227915525 121.3337837458 -9.811202608 0.75073139 1
0.5549844503 121.3337837458 -9.8537856991 0.9354733866 1
2.3327604532 121.3337837458 -9.963495367 1.0962847686 1
4.1105364561 121.3337837458 -9.6936358743 0.9555162787 1
5.888312459 121.3337837458 -9.3855191872 0.6426913664 1
7.6660884619 121.3337837458 -9.3020240814 0.6191459442 1
9.4438644648 121.3337837458 -9.8293596325 0.9875874836 1
11.2216404676 121.3337837458 -9.9069193388 0.7551403394 1
12.9994164705 121.3337837458 0 -0 0
14.7771924734 121.3337837458 0 -0 0
16.5549684763 121.3337837458 0 -0 0
18.3327444792 121.3337837458 0 -0 0
20.1105204821 121.3337837458 0 -0 0
21.8882964849 121.3337837458 0 -0 0
23.6660724878 121.3337837458 0 -0 0
25.4438484907 121.3337837458 0 -0 0
27.2216244936 121.3337837458 0 -0 0
28.9994004965 121.3337837458 0 -0 0
30.7771764994 121.3337837458 0 -0 0
32.5549525023 121.3337837458 0 -0 0
34.3327285051 121.3337837458 0 -0 0
36.110504508 121.3337837458 -9.0851220995 -0.0081663652 1
37.8882805109 121.3337837458 -9.2811678462 0.1125950311 1
39.6660565138 121.3337837458 -9.6723042344 0.2660605506 1
41.4438325167 121.3337837458 -9.3287670301 0.4174096599 1
43.2216085196 121.3337837458 -9.8612905071 0.5814844377 1
44.9993845224 121.3337837458 -10.1867752186 0.3285777062 1
46.7771605253 121.3337837458 -9.5951268566 0.1778328765 1
48.5549365282 121.3337837458 -9.4814521412 0.0815304814 1
50.3327125311 121.3337837458 -9.5854039705 0.2734722824 1
52.110488534 121.3337837458 -9.4352032787 0.5997488579 1
53.8882645369 121.3337837458 0 -0 0
-125.6671117544 119.5560077429 0 -0 0
-123.8893357515 119.5560077429 -9.9635998988 -0.7210171616 1
-122.1115597486 119.5560077429 -10.2514087845 -0.534645615 1
-120.3337837458 119.5560077429 -10.7522233379 -0.3726958391 1
-118.5560077429 119.5560077429 -10.8960533198 -0.4476837776 1
-116.77823174 119.5560077429 -10.8444203553 -0.592636402 1
-115.0004557371 119.5560077429 -10.8646966539 -0.5011138293 1
-113.2226797342 119.5560077429 -10.7450235336 -0.3686090767 1
-111.4449037313 119.5560077429 -10.8698072549 -0.3245310382 1
-109.6671277285 119.5560077429 -10.8520683575 -0.4610337728 1
-107.8893517256 119.5560077429 -10.5991816732 -0.4942290522 1
-106.1115757227 119.5560077429 -10.6342012466 -0.2420454514 1
-104.3337997198 119.5560077429 -10.9052764582 -0.1982180028 1
-102.5560237169 119.5560077429 -10.9553042157 -0.4849085417 1
-100.778247714 119.5560077429 -11.0256211593 -0.3464197035 1
-99.0004717112 119.5560077429 -10.9736044344 -0.0955262825 1
-97.2226957083 119.5560077429 -10.7904705086 0.1366230178 1
-95.4449197054 119.5560077429 -11.0326677459 0.1242438792 1
-93.6671437025 119.5560077429 -10.8610323144 -0.0772418152 1
-91.8893676996 119.5560077429 -10.9553113754 -0.0804694124 1
-90.1115916967 119.5560077429 -11.2192755629 0.0106507846 1
-88.3338156939 119.5560077429 -11.100800978 0.2059533534 1
-86.556039691 119.5560077429 -11.1698621085 0.1084309438 1
-84.7782636881 119.5560077429 -11.2641225543 -0.0450374397 1
-83.0004876852 119.5560077429 -11.2830213248 0.4907580248 1
-81.2227116823 119.5560077429 -11.3079900974 0.218011737 1
-79.4449356794 119.5560077429 -11.0119504091 -0.0459624742 1
-77.6671596766 119.5560077429 -10.83225744 0.1802929528 1
-75.8893836737 119.5560077429 -10.9761046051 0.3013665125 1
-74.1116076708 119.5560077429 -11.1952260971 0.3027769754 1
-72.3338316679 119.5560077429 -11.3301121693 0.2280940406 1
-70.556055665 119.5560077429 -11.3528943664 0.3348496122 1
-68.7782796621 119.5560077429 0 -0 0
-67.0005036592 119.5560077429 0 -0 0
-65.2227276564 119.5560077429 0 -0 0
-63.4449516535 119.5560077429 0 -0 0
-61.6671756506 119.5560077429 0 -0 0
-59.8893996477 119.5560077429 -10.3026909232 1.0272923713 1
-58.1116236448 119.5560077429 -10.5880425964 0.9758341037 1
-56.3338476419 119.5560077429 -10.7194332981 0.6374833934 1
-54.5560716391 119.5560077429 -10.3785910087 0.493690642 1
-52.7782956362 119.5560077429 -10.1810102201 0.526747023 1
-51.0005196333 119.5560077429 -10.6768129766 0.3244895118 1
-49.2227436304 119.5560077429 -11.0343603013 0.5102653706 1
-47.4449676275 119.5560077429 -10.8548907151 0.8878742027 1
-45.6671916246 119.5560077429 -10.782733726 1.0340468417 1
-43.8894156218 119.5560077429 -10.4172090524 0.8423742458 1
-42.1116396189 119.5560077429 -10.5864302297 1.028015502 1
-40.333863616 119.5560077429 -10.532705198 1.2164562048 1
-38.5560876131 119.5560077429 -10.687615547 0.7460203008 1
-36.7783116102 119.5560077429 -10.6167458737 1.0032858637 1
-35.0005356073 119.5560077429 -10.2155028389 1.1635015578 1
-33.2227596045 119.5560077429 -9.9296686013 1.0639715655 1
-31.4449836016 119.5560077429 -10.0935099725 1.2604884212 1
-29.6672075987 119.5560077429 -10.1601998071 1.18290294 1
-27.8894315958 119.5560077429 -10.0704929369 0.7015685254 1
-26.1116555929 119.5560077429 -10.849018321 0.505860717 1
-24.33387959 119.5560077429 -10.7694510321 0.9314696768 1
-22.5561035872 119.5560077429 -10.7243219481 1.1553036899 1
-20.7783275843 119.5560077429 -10.7041773881 1.0929784145 1
-19.0005515814 119.5560077429 -10.4185421904 0.8859682879 1
-17.2227755785 119.5560077429 -10.1547068776 0.9864447939 1
-15.4449995756 119.5560077429 -9.8980126596 1.1027227798 1
-13.6672235727 119.5560077429 -10.0488133351 1.4946524639 1
-11.8894475698 119.5560077429 -10.5408644035 1.3915211374 1
-10.111671567 119.5560077429 -10.527421332 0.7258098715 1
-8.3338955641 119.5560077429 -10.033928298 0.8813101806 1
-6.5561195612 119.5560077429 -10.1943745348 0.9935944803 1
-4.7783435583 119.5560077429 -10.5486742151 0.9148935163 1
-3.0005675554 119.5560077429 -10.6722909037 1.0322970086 1
-1.2227915525 119.5560077429 -10.1245229723 1.3809634291 1
0.5549844503 119.5560077429 -10.0977041306 1.0924400044 1
2.3327604532 119.5560077429 -10.0844586672 0.7531470761 1
4.1105364561 119.5560077429 -9.9825974733 0.6680209884 1
5.888312459 119.5560077429 -9.5677080313 0.7306054452 1
7.6660884619 119.5560077429 -9.3028574716 0.7224233287 1
9.4438644648 119.5560077429 -9.6119335598 0.8479445002 1
11.2216404676 119.5560077429 -9.9083111864 0.9592321682 1
12.9994164705 119.5560077429 0 -0 0
14.7771924734 119.5560077429 0 -0 0
16.5549684763 119.5560077429 0 -0 0
18.3327444792 119.5560077429 0 -0 0
20.1105204821 119.5560077429 0 -0 0
21.8882964849 119.5560077429 0 -0 0
23.6660724878 119.5560077429 0 -0 0
25.4438484907 119.5560077429 0 -0 0
27.2216244936 119.5560077429 0 -0 0
28.9994004965 119.5560077429 0 -0 0
30.7771764994 119.5560077429 0 -0 0
32.5549525023 119.5560077429 0 -0 0
34.3327285051 119.5560077429 0 -0 0
36.110504508 119.5560077429 -9.3730770432 0.2473321813 1
37.8882805109 119.5560077429 -9.173660505 -0.0164444219 1
39.6660565138 119.5560077429 -9.5341547664 0.4399813616 1
41.4438325167 119.5560077429 -9.5791019937 0.6702906164 1
43.2216085196 119.5560077429 -9.4745902752 0.4431259062 1
44.9993845224 119.5560077429 -9.8365522771 0.1083450273 1
46.7771605253 119.5560077429 -9.667278118 0.4675634283 1
48.5549365282 119.5560077429 -9.4163116679 0.5239031862 1
50.3327125311 119.5560077429 -9.625753232 0.0839017774 1
52.110488534 119.5560077429 -9.5392281369 -0.0888190662 1
53.8882645369 119.5560077429 0 -0 0
-125.6671117544 117.77823174 0 -0 0
-123.8893357515 117.77823174 -10.2030950615 -0.7081354114 1
-122.1115597486 117.77823174 -10.5187738343 -0.7253817208 1
-120.3337837458 117.77823174 -10.7918108063 -0.6565454052 1
-118.5560077429 117.77823174 -10.7607648719 -0.5883133691 1
-116.77823174 117.77823174 -10.724251783 -0.5815331237 1
-115.0004557371 117.77823174 -10.828553006 -0.4084872293 1
-113.2226797342 117.77823174 -10.7317451354 -0.5489034615 1
-111.4449037313 117.77823174 -10.7153193288 -0.4803778773 1
-109.6671277285 117.77823174 -10.901132418 -0.3497188979 1
-107.8893517256 117.77823174 -10.7893321147 -0.4459110334 1
-106.1115757227 117.77823174 -10.5536845802 -0.4273716804 1
-104.3337997198 117.77823174 -10.6175334418 -0.3476268306 1
-102.5560237169 117.77823174 -10.6530155325 -0.4072672148 1
-100.778247714 117.77823174 -10.9872322264 -0.3656836192 1
-99.0004717112 117.77823174 -11.0433213944 -0.1786949056 1
-97.2226957083 117.77823174 -10.703069065 -0.1241493711 1
-95.4449197054 117.77823174 -10.7964044763 -0.149357278 1
-93.6671437025 117.77823174 -10.75878736 -0.1823434938 1
-91.8893676996 117.77823174 -10.9075374946 -0.2233614723 1
-90.1115916967 117.77823174 -11.2892803433 -0.1046506169 1
-88.3338156939 117.77823174 -11.3438072625 0.0564901117 1
-86.556039691 117.77823174 -11.0421099714 0.0924934294 1
-84.7782636881 117.77823174 -11.1237965345 0.1588066632 1
-83.0004876852 117.77823174 -11.2052468272 0.3552920161 1
-81.2227116823 117.77823174 -11.069202314 0.1025084317 1
-79.4449356794 117.77823174 -10.6801178987 -0.1034678328 1
-77.6671596766 117.77823174 -10.610369436 0.276838778 1
-75.8893836737 117.77823174 -10.8112164843 0.3533345514 1
-74.1116076708 117.77823174 -11.2231160314 0.3899621957 1
-72.3338316679 117.77823174 -11.2301941207 0.5198865889 1
-70.556055665 117.77823174 -10.9704398426 0.6924384633 1
-68.7782796621 117.77823174 0 -0 0
-67.0005036592 117.77823174 0 -0 0
-65.2227276564 117.77823174 0 -0 0
-63.4449516535 117.77823174 0 -0 0
-61.6671756506 117.77823174 0 -0 0
-59.8893996477 117.77823174 -10.5303897478 0.813855689 1
-58.1116236448 117.77823174 -10.8103143608 0.7855576513 1
-56.3338476419 117.77823174 -11.0206609123 0.5680743009 1
-54.5560716391 117.77823174 -10.8425588307 0.3045282404 1
-52.7782956362 117.77823174 -10.3277141096 0.2791728435 1
-51.0005196333 117.77823174 -10.4686887991 0.7206319692 1
-49.2227436304 117.77823174 -10.852152842 0.8119769811 1
-47.4449676275 117.77823174 -10.8212601254 0.8668146318 1
-45.6671916246 117.77823174 -10.8067072989 0.8767737884 1
-43.8894156218 117.77823174 -10.6152523582 0.8057308501 1
-42.1116396189 117.77823174 -10.3864910327 1.1240630114 1
-40.333863616 117.77823174 -10.1638498273 1.1462924789 1
-38.5560876131 117.77823174 -10.3731052389 0.8563256567 1
-36.7783116102 117.77823174 -10.4775725672 0.9930617979 1
-35.0005356073 117.77823174 -10.3449503954 1.1459932031 1
-33.2227596045 117.77823174 -10.4657246792 1.0997686835 1
-31.4449836016 117.77823174 -10.3500466769 1.138267876 1
-29.6672075987 117.77823174 -10.2715948708 1.0733307384 1
-27.8894315958 117.77823174 -10.5377613852 1.0660063551 1
-26.1116555929 117.77823174 -10.4822349704 0.6275299645 1
-24.33387959 117.77823174 -10.4192868002 0.9806139261 1
-22.5561035872 117.77823174 -10.311533165 1.3941587746 1
-20.7783275843 117.77823174 -10.5008888788 1.3374295285 1
-19.0005515814 117.77823174 -10.2357605224 0.9790301983 1
-17.2227755785 117.77823174 -9.4525784628 0.9165746162 1
-15.4449995756 117.77823174 -9.6369567462 0.9385420383 1
-13.6672235727 117.77823174 -10.2304236745 1.1407766384 1
-11.8894475698 117.77823174 -10.5192105766 1.1504909329 1
-10.111671567 117.77823174 -9.9858809163 0.6451972649 1
-8.3338955641 117.77823174 -9.9056277271 0.5271780375 1