TITLE = "B00071"
VARIABLES = "x", "y", "Vx", "Vy", "isValid"
ZONE T="Frame 0", I=102, J=78, F=POINT
-125.6671117544 126.6671117544 0 -0 0
-123.8893357515 126.6671117544 0 -0 0
-122.1115597486 126.6671117544 0 -0 0
-120.3337837458 126.6671117544 0 -0 0
-118.5560077429 126.6671117544 0 -0 0
-116.77823174 126.6671117544 0 -0 0
-115.0004557371 126.6671117544 0 -0 0
-113.2226797342 126.6671117544 0 -0 0
-111.4449037313 126.6671117544 0 -0 0
-109.6671277285 126.6671117544 0 -0 0
-107.8893517256 126.6671117544 0 -0 0
-106.1115757227 126.6671117544 0 -0 0
-104.3337997198 126.6671117544 0 -0 0
-102.5560237169 126.6671117544 0 -0 0
-100.778247714 126.6671117544 0 -0 0
-99.0004717112 126.6671117544 0 -0 0
-97.2226957083 126.6671117544 0 -0 0
-95.4449197054 126.6671117544 0 -0 0
-93.6671437025 126.6671117544 0 -0 0
-91.8893676996 126.6671117544 0 -0 0
-90.1115916967 126.6671117544 0 -0 0
-88.3338156939 126.6671117544 0 -0 0
-86.556039691 126.6671117544 0 -0 0
-84.7782636881 126.6671117544 0 -0 0
-83.0004876852 126.6671117544 0 -0 0
-81.2227116823 126.6671117544 0 -0 0
-79.4449356794 126.6671117544 0 -0 0
-77.6671596766 126.6671117544 0 -0 0
-75.8893836737 126.6671117544 0 -0 0
-74.1116076708 126.6671117544 0 -0 0
-72.3338316679 126.6671117544 0 -0 0
-70.556055665 126.6671117544 0 -0 0
-68.7782796621 126.6671117544 0 -0 0
-67.0005036592 126.6671117544 0 -0 0
-65.2227276564 126.6671117544 0 -0 0
-63.4449516535 126.6671117544 0 -0 0
-61.6671756506 126.6671117544 0 -0 0
-59.8893996477 126.6671117544 0 -0 0
-58.1116236448 126.6671117544 0 -0 0
-56.3338476419 126.6671117544 0 -0 0
-54.5560716391 126.6671117544 0 -0 0
-52.7782956362 126.6671117544 0 -0 0
-51.0005196333 126.6671117544 0 -0 0
-49.2227436304 126.6671117544 0 -0 0
-47.4449676275 126.6671117544 0 -0 0
-45.6671916246 126.6671117544 0 -0 0
-43.8894156218 126.6671117544 0 -0 0
-42.1116396189 126.6671117544 0 -0 0
-40.333863616 126.6671117544 0 -0 0
-38.5560876131 126.6671117544 0 -0 0
-36.7783116102 126.6671117544 0 -0 0
-35.0005356073 126.6671117544 0 -0 0
-33.2227596045 126.6671117544 0 -0 0
-31.4449836016 126.6671117544 0 -0 0
-29.6672075987 126.6671117544 0 -0 0
-27.8894315958 126.6671117544 0 -0 0
-26.1116555929 126.6671117544 0 -0 0
-24.33387959 126.6671117544 0 -0 0
-22.5561035872 126.6671117544 0 -0 0
-20.7783275843 126.6671117544 0 -0 0
-19.0005515814 126.6671117544 0 -0 0
-17.2227755785 126.6671117544 0 -0 0
-15.4449995756 126.6671117544 0 -0 0
-13.6672235727 126.6671117544 0 -0 0
-11.8894475698 126.6671117544 0 -0 0
-10.111671567 126.6671117544 0 -0 0
-8.3338955641 126.6671117544 0 -0 0
-6.5561195612 126.6671117544 0 -0 0
-4.7783435583 126.6671117544 0 -0 0
-3.0005675554 126.6671117544 0 -0 0
-1.2227915525 126.6671117544 0 -0 0
0.5549844503 126.6671117544 0 -0 0
2.3327604532 126.6671117544 0 -0 0
4.1105364561 126.6671117544 0 -0 0
5.888312459 126.6671117544 0 -0 0
7.6660884619 126.6671117544 0 -0 0
9.4438644648 126.6671117544 0 -0 0
11.2216404676 126.6671117544 0 -0 0
12.9994164705 126.6671117544 0 -0 0
14.7771924734 126.6671117544 0 -0 0
16.5549684763 126.6671117544 0 -0 0
18.3327444792 126.6671117544 0 -0 0
20.1105204821 126.6671117544 0 -0 0
21.8882964849 126.6671117544 0 -0 0
23.6660724878 126.6671117544 0 -0 0
25.4438484907 126.6671117544 0 -0 0
27.2216244936 126.6671117544 0 -0 0
28.9994004965 126.6671117544 0 -0 0
30.7771764994 126.6671117544 0 -0 0
32.5549525023 126.6671117544 0 -0 0
34.3327285051 126.6671117544 0 -0 0
36.110504508 126.6671117544 0 -0 0
37.8882805109 126.6671117544 0 -0 0
39.6660565138 126.6671117544 0 -0 0
41.4438325167 126.6671117544 0 -0 0
43.2216085196 126.6671117544 0 -0 0
44.9993845224 126.6671117544 0 -0 0
46.7771605253 126.6671117544 0 -0 0
48.5549365282 126.6671117544 0 -0 0
50.3327125311 126.6671117544 0 -0 0
52.110488534 126.6671117544 0 -0 0
53.8882645369 126.6671117544 0 -0 0
-125.6671117544 124.8893357515 0 -0 0
-123.8893357515 124.8893357515 -9.9511090688 -0.2334924619 1
-122.1115597486 124.8893357515 -9.9619674849 -0.1388181849 1
-120.3337837458 124.8893357515 -10.3962525813 -0.1959254636 1
-118.5560077429 124.8893357515 -10.481848346 -0.399583414 1
-116.77823174 124.8893357515 -10.2670384314 -0.38309317 1
-115.0004557371 124.8893357515 -10.4230986298 -0.1440576606 1
-113.2226797342 124.8893357515 -10.6697033846 -0.1397919054 1
-111.4449037313 124.8893357515 -10.4909354499 -0.1872450312 1
-109.6671277285 124.8893357515 -10.5450800407 -0.1747699526 1
-107.8893517256 124.8893357515 -10.4206614645 -0.3091863477 1
-106.1115757227 124.8893357515 -10.6463541384 -0.1504713288 1
-104.3337997198 124.8893357515 -10.8051980321 0.1054854391 1
-102.5560237169 124.8893357515 -10.9149692735 0.1202129625 1
-100.778247714 124.8893357515 -10.9176856675 0.1565928809 1
-99.0004717112 124.8893357515 -11.0560241518 0.0462102002 1
-97.2226957083 124.8893357515 -10.9701405667 -0.0434723271 1
-95.4449197054 124.8893357515 -10.7108688531 0.1205022148 1
-93.6671437025 124.8893357515 -11.1553221695 0.0288679506 1
-91.8893676996 124.8893357515 -11.0398947572 -0.1071808584 1
-90.1115916967 124.8893357515 -10.7749425296 -0.0530119246 1
-88.3338156939 124.8893357515 -10.9896708236 -0.164291001 1
-86.556039691 124.8893357515 -10.9842867217 -0.0994741466 1
-84.7782636881 124.8893357515 -10.8517604899 0.0490511731 1
-83.0004876852 124.8893357515 -10.62819425 0.1346770086 1
-81.2227116823 124.8893357515 -10.4939282087 0.0933482987 1
-79.4449356794 124.8893357515 -10.7897001238 -0.0410881436 1
-77.6671596766 124.8893357515 -10.905180518 0.194582302 1
-75.8893836737 124.8893357515 -10.9216707621 0.4400758698 1
-74.1116076708 124.8893357515 -10.8736219484 0.4407388589 1
-72.3338316679 124.8893357515 -11.0189669249 0.3424374728 1
-70.556055665 124.8893357515 -10.9935914808 0.2803055096 1
-68.7782796621 124.8893357515 0 -0 0
-67.0005036592 124.8893357515 0 -0 0
-65.2227276564 124.8893357515 0 -0 0
-63.4449516535 124.8893357515 0 -0 0
-61.6671756506 124.8893357515 0 -0 0
-59.8893996477 124.8893357515 -11.1008482321 0.2575977734 1
-58.1116236448 124.8893357515 -10.5926248108 0.6209344397 1
-56.3338476419 124.8893357515 -10.8937435973 0.7960093959 1
-54.5560716391 124.8893357515 -11.0651728292 0.6003244986 1
-52.7782956362 124.8893357515 -10.7650392188 0.6162505574 1
-51.0005196333 124.8893357515 -10.4445663042 0.6140095682 1
-49.2227436304 124.8893357515 -11.2688322115 0.9280602229 1
-47.4449676275 124.8893357515 -10.8657648827 0.8853625765 1
-45.6671916246 124.8893357515 -10.779229764 0.7883843048 1
-43.8894156218 124.8893357515 -10.9236869364 1.2218560581 1
-42.1116396189 124.8893357515 -10.8297014235 1.2169387693 1
-40.333863616 124.8893357515 -10.7199158626 1.1115621578 1
-38.5560876131 124.8893357515 -10.8836770451 0.8290156589 1
-36.7783116102 124.8893357515 0 -0 0
-35.0005356073 124.8893357515 -10.5781249661 1.1538316536 1
-33.2227596045 124.8893357515 -10.0479928323 1.2035916379 1
-31.4449836016 124.8893357515 -10.137639561 0.3549841486 1
-29.6672075987 124.8893357515 -10.1197746526 0.3533302556 1
-27.8894315958 124.8893357515 -10.5025341801 0.3804383495 1
-26.1116555929 124.8893357515 -10.3577691401 0.8026020569 1
-24.33387959 124.8893357515 -9.9515787458 1.0125004105 1
-22.5561035872 124.8893357515 -9.9960605919 1.0526792709 1
-20.7783275843 124.8893357515 -10.5118890572 1.3543121247 1
-19.0005515814 124.8893357515 -11.4261109926 1.2688595541 1
-17.2227755785 124.8893357515 -10.8936433614 1.386347531 1
-15.4449995756 124.8893357515 -10.3977632801 1.3031602927 1
-13.6672235727 124.8893357515 -10.1010290999 1.0078251199 1
-11.8894475698 124.8893357515 -10.4610565482 1.1405188888 1
-10.111671567 124.8893357515 -10.4899302267 1.0999949303 1
-8.3338955641 124.8893357515 -10.0642596934 1.1737213279 1
-6.5561195612 124.8893357515 -9.373256036 1.6518897186 1
-4.7783435583 124.8893357515 -10.199701359 1.2027052658 1
-3.0005675554 124.8893357515 -10.1204090029 0.9023754793 1
-1.2227915525 124.8893357515 -9.5388544 0.7366324891 1
0.5549844503 124.8893357515 -9.4934131527 0.7732186071 1
2.3327604532 124.8893357515 -10.059011626 0.9899415963 1
4.1105364561 124.8893357515 -10.3083012719 0.8702226537 1
5.888312459 124.8893357515 -9.8388061538 0.8133673968 1
7.6660884619 124.8893357515 -9.9090701157 1.190678385 1
9.4438644648 124.8893357515 -10.2503949696 0.8256878257 1
11.2216404676 124.8893357515 -10.1027016082 0.9585348125 1
12.9994164705 124.8893357515 0 -0 0
14.7771924734 124.8893357515 0 -0 0
16.5549684763 124.8893357515 0 -0 0
18.3327444792 124.8893357515 0 -0 0
20.1105204821 124.8893357515 0 -0 0
21.8882964849 124.8893357515 0 -0 0
23.6660724878 124.8893357515 0 -0 0
25.4438484907 124.8893357515 0 -0 0
27.2216244936 124.8893357515 0 -0 0
28.9994004965 124.8893357515 0 -0 0
30.7771764994 124.8893357515 0 -0 0
32.5549525023 124.8893357515 0 -0 0
34.3327285051 124.8893357515 0 -0 0
36.110504508 124.8893357515 -9.483630125 1.028781591 1
37.8882805109 124.8893357515 -9.1595358292 0.6555988915 1
39.6660565138 124.8893357515 -9.2051532053 0.1386778546 1
41.4438325167 124.8893357515 -9.5318536356 -0.2038741736 1
43.2216085196 124.8893357515 -9.577662892 0.2265547029 1
44.9993845224 124.8893357515 -10.3364346363 0.6935224434 1
46.7771605253 124.8893357515 -9.5976470745 0.0401688369 1
48.5549365282 124.8893357515 -9.5851963389 0.2985212438 1
50.3327125311 124.8893357515 -9.6612338908 1.0007957166 1
52.110488534 124.8893357515 -9.4055262808 0.9407415012 1
53.8882645369 124.8893357515 0 -0 0
-125.6671117544 123.1115597486 0 -0 0
-123.8893357515 123.1115597486 -10.1651958527 -0.3927673701 1
-122.1115597486 123.1115597486 -10.1724500709 -0.2774144187 1
-120.3337837458 123.1115597486 -10.4353861241 -0.3027569282 1
-118.5560077429 123.1115597486 -10.4961620382 -0.4204911991 1
-116.77823174 123.1115597486 -10.3189048024 -0.3222771615 1
-115.0004557371 123.1115597486 -10.3858953448 -0.2263485033 1
-113.2226797342 123.1115597486 -10.5752052364 -0.2518957804 1
-111.4449037313 123.1115597486 -10.8134503138 -0.2207553378 1
-109.6671277285 123.1115597486 -10.5486083458 -0.331251142 1
-107.8893517256 123.1115597486 -10.4669532854 -0.3549898764 1
-106.1115757227 123.1115597486 -10.4340458264 0.0537866053 1
-104.3337997198 123.1115597486 -10.7924809552 -0.0033378568 1
-102.5560237169 123.1115597486 -11.0039931074 -0.2720775709 1
-100.778247714 123.1115597486 -10.9823965582 -0.2682857885 1
-99.0004717112 123.1115597486 -10.8630771275 -0.2783237019 1
-97.2226957083 123.1115597486 -10.675098942 -0.3586556479 1
-95.4449197054 123.1115597486 -10.590027268 -0.113830797 1
-93.6671437025 123.1115597486 -10.698724553 0.0766647425 1
-91.8893676996 123.1115597486 -10.7541149333 0.1356235223 1
-90.1115916967 123.1115597486 -10.8443344387 0.0576428251 1
-88.3338156939 123.1115597486 -10.7260961242 -0.1148174051 1
-86.556039691 123.1115597486 -10.8505762739 0.0185823113 1
-84.7782636881 123.1115597486 -11.2278915579 0.0777659059 1
-83.0004876852 123.1115597486 -11.1526759407 0.1741456259 1
-81.2227116823 123.1115597486 -10.5764309788 -0.0457147482 1
-79.4449356794 123.1115597486 -11.0451929425 -0.2697621207 1
-77.6671596766 123.1115597486 -11.0361172942 0.1026186912 1
-75.8893836737 123.1115597486 -10.9192264371 0.3712553055 1
-74.1116076708 123.1115597486 -10.9366345559 0.3480034314 1
-72.3338316679 123.1115597486 -11.1264900174 0.3319427699 1
-70.556055665 123.1115597486 -11.1089816626 0.328311365 1
-68.7782796621 123.1115597486 0 -0 0
-67.0005036592 123.1115597486 0 -0 0
-65.2227276564 123.1115597486 0 -0 0
-63.4449516535 123.1115597486 0 -0 0
-61.6671756506 123.1115597486 0 -0 0
-59.8893996477 123.1115597486 -10.6757060854 -0.0184863712 1
-58.1116236448 123.1115597486 -10.601802127 0.229760821 1
-56.3338476419 123.1115597486 -10.9270162015 0.6365683824 1
-54.5560716391 123.1115597486 -10.8451807165 0.6655594801 1
-52.7782956362 123.1115597486 -10.6777466028 0.5957293967 1
-51.0005196333 123.1115597486 -10.5639644917 0.6815284972 1
-49.2227436304 123.1115597486 -10.5208444224 0.8096128449 1
-47.4449676275 123.1115597486 -10.6965394095 0.978395848 1
-45.6671916246 123.1115597486 -10.7086164083 1.032262642 1
-43.8894156218 123.1115597486 -10.6900126179 1.04786365 1
-42.1116396189 123.1115597486 -10.6372169165 1.1782949506 1
-40.333863616 123.1115597486 -10.4441653605 1.1383881591 1
-38.5560876131 123.1115597486 -10.5893041373 1.0371040379 1
-36.7783116102 123.1115597486 -10.9894345532 1.1696861153 1
-35.0005356073 123.1115597486 -10.6646944515 1.3472941769 1
-33.2227596045 123.1115597486 -10.1520148267 1.3449787267 1
-31.4449836016 123.1115597486 -10.2064859002 1.0908018627 1
-29.6672075987 123.1115597486 -10.1689461088 0.6936957084 1
-27.8894315958 123.1115597486 -10.5095549917 0.6307074438 1
-26.1116555929 123.1115597486 -10.4490468507 0.9115499317 1
-24.33387959 123.1115597486 -9.6698599094 1.0104584612 1
-22.5561035872 123.1115597486 -9.9105292645 0.8906263952 1
-20.7783275843 123.1115597486 -10.4546357203 1.3334816644 1
-19.0005515814 123.1115597486 -10.7190151711 1.4502436467 1
-17.2227755785 123.1115597486 -10.2500198008 1.3635195117 1
-15.4449995756 123.1115597486 -10.0176156148 1.0844297208 1
-13.6672235727 123.1115597486 -10.133269274 0.7924209493 1
-11.8894475698 123.1115597486 -10.219970498 0.8168326964 1
-10.111671567 123.1115597486 -10.044544716 0.8869205294 1
-8.3338955641 123.1115597486 -9.888916964 0.9129460751 1
-6.5561195612 123.1115597486 -9.8204314742 1.1405589832 1
-4.7783435583 123.1115597486 -10.0228794336 1.2916875734 1
-3.0005675554 123.1115597486 -9.8047975314 0.8112710337 1
-1.2227915525 123.1115597486 0 -0 0
0.5549844503 123.1115597486 -9.4671842712 0.9144739573 1
2.3327604532 123.1115597486 -10.1122684127 1.1157434284 1
4.1105364561 123.1115597486 -10.1967415349 1.1101960851 1
5.888312459 123.1115597486 -9.8336210919 0.9794540531 1
7.6660884619 123.1115597486 -9.5970041326 0.9718089148 1
9.4438644648 123.1115597486 -9.9109445277 0.7896215027 1
11.2216404676 123.1115597486 -10.3894809276 1.0359112302 1
12.9994164705 123.1115597486 0 -0 0
14.7771924734 123.1115597486 0 -0 0
16.5549684763 123.1115597486 0 -0 0
18.3327444792 123.1115597486 0 -0 0
20.1105204821 123.1115597486 0 -0 0
21.8882964849 123.1115597486 0 -0 0
23.6660724878 123.1115597486 0 -0 0
25.4438484907 123.1115597486 0 -0 0
27.2216244936 123.1115597486 0 -0 0
28.9994004965 123.1115597486 0 -0 0
30.7771764994 123.1115597486 0 -0 0
32.5549525023 123.1115597486 0 -0 0
34.3327285051 123.1115597486 0 -0 0
36.110504508 123.1115597486 -9.723168246 0.7830245459 1
37.8882805109 123.1115597486 -9.1612971178 0.5955031499 1
39.6660565138 123.1115597486 -9.2660322193 0.2251556956 1
41.4438325167 123.1115597486 -9.5734014326 -0.0292402556 1
43.2216085196 123.1115597486 -10.0941529145 0.1028478019 1
44.9993845224 123.1115597486 -10.3126901742 0.4931250249 1
46.7771605253 123.1115597486 -9.7482200712 0.4127443929 1
48.5549365282 123.1115597486 -9.3479063668 0.4544010175 1
50.3327125311 123.1115597486 -9.4094068436 0.5538937793 1
52.110488534 123.1115597486 -9.2269172917 0.6782335987 1
53.8882645369 123.1115597486 0 -0 0
-125.6671117544 121.3337837458 0 -0 0
-123.8893357515 121.3337837458 -10.2546764761 -0.3914213446 1
-122.1115597486 121.3337837458 -10.5932734805 -0.2943485648 1
-120.3337837458 121.3337837458 -10.7012504987 -0.3868849524 1
-118.5560077429 121.3337837458 -10.5286327549 -0.3889226058 1
-116.77823174 121.3337837458 -10.387421795 -0.2291751568 1
-115.0004557371 121.3337837458 -10.4726638701 -0.2513430508 1
-113.2226797342 121.3337837458 -10.6492423654 -0.2699239301 1
-111.4449037313 121.3337837458 -10.6067838532 -0.2494228166 1
-109.6671277285 121.3337837458 -10.4800856254 -0.3373884454 1
-107.8893517256 121.3337837458 -10.648734026 -0.1691739232 1
-106.1115757227 121.3337837458 -10.742148194 0.0087749406 1
-104.3337997198 121.3337837458 -10.9084496416 -0.2136686569 1
-102.5560237169 121.3337837458 -10.9398249227 -0.4504101952 1
-100.778247714 121.3337837458 -10.8908711217 -0.6171082907 1
-99.0004717112 121.3337837458 -10.7111967678 -0.4547389558 1
-97.2226957083 121.3337837458 -10.5150808559 -0.3245195826 1
-95.4449197054 121.3337837458 -10.6038197333 -0.2093986059 1
-93.6671437025 121.3337837458 -10.6670814988 -0.1069875462 1
-91.8893676996 121.3337837458 -10.9934754935 -0.0573621644 1
-90.1115916967 121.3337837458 -10.9566688564 -0.0091057192 1
-88.3338156939 121.3337837458 -10.8170043938 -0.1100891326 1
-86.556039691 121.3337837458 -10.6932502387 -0.0124063455 1
-84.7782636881 121.3337837458 -11.1354711576 0.1977798285 1
-83.0004876852 121.3337837458 -11.4180577508 0.3021999027 1
-81.2227116823 121.3337837458 -11.2034296928 0.1455669275 1
-79.4449356794 121.3337837458 -11.2521343359 -0.1511615249 1
-77.6671596766 121.3337837458 -11.102430528 0.0009164429 1
-75.8893836737 121.3337837458 -10.9304886609 0.200434649 1
-74.1116076708 121.3337837458 -10.9955804482 0.01362636 1
-72.3338316679 121.3337837458 -11.185626358 0.0308769653 1
-70.556055665 121.3337837458 -11.0295031541 0.2103451195 1
-68.7782796621 121.3337837458 0 -0 0
-67.0005036592 121.3337837458 0 -0 0
-65.2227276564 121.3337837458 0 -0 0
-63.4449516535 121.3337837458 0 -0 0
-61.6671756506 121.3337837458 0 -0 0
-59.8893996477 121.3337837458 -10.4954360436 0.3737912748 1
-58.1116236448 121.3337837458 -10.9542216675 0.3843475512 1
-56.3338476419 121.3337837458 -10.851981009 0.4410682056 1
-54.5560716391 121.3337837458 -10.5669042687 0.5225156344 1
-52.7782956362 121.3337837458 -10.5470031388 0.7378066815 1
-51.0005196333 121.3337837458 -10.8521170435 0.9673183447 1
-49.2227436304 121.3337837458 -10.7282626525 0.8528431737 1
-47.4449676275 121.3337837458 -10.7419491541 0.8241098256 1
-45.6671916246 121.3337837458 -10.9407342059 1.133231736 1
-43.8894156218 121.3337837458 -10.7122907715 1.1298380335 1
-42.1116396189 121.3337837458 -10.5447005761 1.068651152 1
-40.333863616 121.3337837458 -10.6493426013 0.9093776757 1
-38.5560876131 121.3337837458 -10.5827845054 0.8826676616 1
-36.7783116102 121.3337837458 -10.8173752668 1.0699141248 1
-35.0005356073 121.3337837458 -10.7617357286 0.8993941761 1
-33.2227596045 121.3337837458 -10.6404072833 0.7526931505 1
-31.4449836016 121.3337837458 -10.7166796737 0.7852612393 1
-29.6672075987 121.3337837458 -10.4643256718 1.0026830162 1
-27.8894315958 121.3337837458 -10.3201620475 0.7912897151 1
-26.1116555929 121.3337837458 -9.9334732712 0.7169303992 1
-24.33387959 121.3337837458 -10.5346827099 1.0795467986 1
-22.5561035872 121.3337837458 -10.5964824625 1.1024764858 1
-20.7783275843 121.3337837458 -10.4157570632 1.15688169 1
-19.0005515814 121.3337837458 -10.2662909577 1.2519855496 1
-17.2227755785 121.3337837458 -10.069058131 1.2191826224 1
-15.4449995756 121.3337837458 -10.1359498694 1.0842722072 1
-13.6672235727 121.3337837458 -10.3562570094 0.9895320609 1
-11.8894475698 121.3337837458 -10.1136244617 0.8895653262 1
-10.111671567 121.3337837458 -9.9254458043 0.9265122936 1
-8.3338955641 121.3337837458 -9.5455086345 1.1030363751 1
-6.5561195612 121.3337837458 -9.7697965732 1.2226278748 1
-4.7783435583 121.3337837458 -10.2658642389 1.2111823624 1
-3.0005675554 121.3337837458 -9.7480725812 1.4393322487 1
-1.2227915525 121.3337837458 -9.7133494197 1.3753559442 1
0.5549844503 121.3337837458 -10.1863041097 1.2046469792 1
2.3327604532 121.3337837458 -10.5942056748 1.2898045697 1
4.1105364561 121.3337837458 -10.1686668801 1.0463543831 1
5.888312459 121.3337837458 -9.7526676831 0.9366375555 1
7.6660884619 121.3337837458 -9.5621549602 0.8554808109 1
9.4438644648 121.3337837458 -10.0036985705 0.7122393572 1
11.2216404676 121.3337837458 -10.7143112416 0.9336405009 1
12.9994164705 121.3337837458 0 -0 0
14.7771924734 121.3337837458 0 -0 0
16.5549684763 121.3337837458 0 -0 0
18.3327444792 121.3337837458 0 -0 0
20.1105204821 121.3337837458 0 -0 0
21.8882964849 121.3337837458 0 -0 0
23.6660724878 121.3337837458 0 -0 0
25.4438484907 121.3337837458 0 -0 0
27.2216244936 121.3337837458 0 -0 0
28.9994004965 121.3337837458 0 -0 0
30.7771764994 121.3337837458 0 -0 0
32.5549525023 121.3337837458 0 -0 0
34.3327285051 121.3337837458 0 -0 0
36.110504508 121.3337837458 -9.5545270052 0.747077074 1
37.8882805109 121.3337837458 -9.4888853521 0.7874478147 1
39.6660565138 121.3337837458 -9.659106025 0.4545270284 1
41.4438325167 121.3337837458 -10.1368004429 0.6867536536 1
43.2216085196 121.3337837458 -10.2109506953 0.5862714198 1
44.9993845224 121.3337837458 -9.8251912494 0.2863010508 1
46.7771605253 121.3337837458 -9.7620426073 0.4415693853 1
48.5549365282 121.3337837458 -9.1879269431 0.3580384809 1
50.3327125311 121.3337837458 -9.3213209317 0.3795290664 1
52.110488534 121.3337837458 -9.3451541743 0.4100108156 1
53.8882645369 121.3337837458 0 -0 0
-125.6671117544 119.5560077429 0 -0 0
-123.8893357515 119.5560077429 -10.158302484 -0.0925922334 1
-122.1115597486 119.5560077429 -10.656558157 -0.2557835029 1
-120.3337837458 119.5560077429 -10.7638707541 -0.4415593617 1
-118.5560077429 119.5560077429 -10.3765748344 -0.4009580783 1
-116.77823174 119.5560077429 -10.3766263843 -0.1753069308 1
-115.0004557371 119.5560077429 -10.4244160165 -0.2273207919 1
-113.2226797342 119.5560077429 -10.516978179 -0.3171880396 1
-111.4449037313 119.5560077429 -10.5340326082 -0.3226967205 1
-109.6671277285 119.5560077429 -10.5948743917 -0.3686878335 1
-107.8893517256 119.5560077429 -10.7768169417 -0.2208555738 1
-106.1115757227 119.5560077429 -10.9238902722 -0.0353417604 1
-104.3337997198 119.5560077429 -11.0922708995 -0.3493795276 1
-102.5560237169 119.5560077429 -10.8812814061 -0.511143151 1
-100.778247714 119.5560077429 -10.6462009206 -0.5420745301 1
-99.0004717112 119.5560077429 -10.742494724 -0.4257120596 1
-97.2226957083 119.5560077429 -10.8067230503 -0.3189851268 1
-95.4449197054 119.5560077429 -10.7745587692 -0.3261706118 1
-93.6671437025 119.5560077429 -10.8208921163 -0.4032405939 1
-91.8893676996 119.5560077429 -11.0926016781 -0.4034195866 1
-90.1115916967 119.5560077429 -10.9756678628 -0.2223132907 1
-88.3338156939 119.5560077429 -10.9383872529 -0.1248624782 1
-86.556039691 119.5560077429 -10.8110732901 0.0167995435 1
-84.7782636881 119.5560077429 -11.2368311718 -0.0190677396 1
-83.0004876852 119.5560077429 -11.5266934623 0.0160248629 1
-81.2227116823 119.5560077429 -11.3953099203 -0.010344349 1
-79.4449356794 119.5560077429 -11.2279746106 -0.1648322751 1
-77.6671596766 119.5560077429 -11.1753135117 -0.0440236247 1
-75.8893836737 119.5560077429 -11.2646380534 0.1290609321 1
-74.1116076708 119.5560077429 -11.2547433342 0.0486258863 1
-72.3338316679 119.5560077429 -11.0617447601 -0.1199222783 1
-70.556055665 119.5560077429 -10.7691646437 -0.2272721059 1
-68.7782796621 119.5560077429 0 -0 0
-67.0005036592 119.5560077429 0 -0 0
-65.2227276564 119.5560077429 0 -0 0
-63.4449516535 119.5560077429 0 -0 0
-61.6671756506 119.5560077429 0 -0 0
-59.8893996477 119.5560077429 -10.8117448709 0.4814890642 1
-58.1116236448 119.5560077429 -10.8960690711 0.6584198173 1
-56.3338476419 119.5560077429 -10.5735570712 0.6381707255 1
-54.5560716391 119.5560077429 -10.5995969364 0.5498370877 1
-52.7782956362 119.5560077429 -10.7561081965 0.9334185499 1
-51.0005196333 119.5560077429 -11.2233694851 1.1722664748 1
-49.2227436304 119.5560077429 -11.1132517137 0.7203298295 1
-47.4449676275 119.5560077429 -10.8763855964 0.2529095953 1
-45.6671916246 119.5560077429 -11.1020567911 0.4232448236 1
-43.8894156218 119.5560077429 -10.8140732085 0.8892359796 1
-42.1116396189 119.5560077429 -10.4983615011 0.9859693892 1
-40.333863616 119.5560077429 -10.7300382606 1.0187980914 1
-38.5560876131 119.5560077429 -10.6937299393 0.8754306268 1
-36.7783116102 119.5560077429 -10.8441597418 0.7583679367 1
-35.0005356073 119.5560077429 -11.0869641225 0.5743777096 1
-33.2227596045 119.5560077429 -10.8952614558 0.3091705964 1
-31.4449836016 119.5560077429 -11.0398403434 0.8458839356 1
-29.6672075987 119.5560077429 -11.0700400001 1.3292187731 1
-27.8894315958 119.5560077429 -11.1236161098 0.9876891515 1
-26.1116555929 119.5560077429 -10.7254474545 0.3158606294 1
-24.33387959 119.5560077429 -10.6912082895 0.624482792 1
-22.5561035872 119.5560077429 -10.7132057824 1.0922853546 1
-20.7783275843 119.5560077429 -10.5964652792 0.8891099687 1
-19.0005515814 119.5560077429 -10.0684481237 0.9096354252 1
-17.2227755785 119.5560077429 -10.0811523131 0.9810449407 1
-15.4449995756 119.5560077429 -10.7468234846 0.8996877242 1
-13.6672235727 119.5560077429 -10.587560032 0.9500577159 1
-11.8894475698 119.5560077429 -10.1265663535 1.0839528841 1
-10.111671567 119.5560077429 -9.9842399107 1.2686132601 1
-8.3338955641 119.5560077429 -9.624421526 1.3318463867 1
-6.5561195612 119.5560077429 -9.7725802685 1.254444194 1
-4.7783435583 119.5560077429 -10.3206617952 1.0143733906 1
-3.0005675554 119.5560077429 -10.1789725667 1.3006801691 1
-1.2227915525 119.5560077429 -10.3495240181 1.4014845898 1
0.5549844503 119.5560077429 -10.4239706825 1.008044207 1
2.3327604532 119.5560077429 -10.1703279328 0.7870841015 1
4.1105364561 119.5560077429 -9.9622825122 0.7180974319 1
5.888312459 119.5560077429 -9.8120646371 0.9341960944 1
7.6660884619 119.5560077429 -9.6521338994 0.9171917832 1
9.4438644648 119.5560077429 -10.1865647231 0.4552558869 1
11.2216404676 119.5560077429 -10.5965554916 0.9980420921 1
12.9994164705 119.5560077429 0 -0 0
14.7771924734 119.5560077429 0 -0 0
16.5549684763 119.5560077429 0 -0 0
18.3327444792 119.5560077429 0 -0 0
20.1105204821 119.5560077429 0 -0 0
21.8882964849 119.5560077429 0 -0 0
23.6660724878 119.5560077429 0 -0 0
25.4438484907 119.5560077429 0 -0 0
27.2216244936 119.5560077429 0 -0 0
28.9994004965 119.5560077429 0 -0 0
30.7771764994 119.5560077429 0 -0 0
32.5549525023 119.5560077429 0 -0 0
34.3327285051 119.5560077429 0 -0 0
36.110504508 119.5560077429 -9.3952077068 0.9005769602 1
37.8882805109 119.5560077429 -9.8088456315 0.7021584855 1
39.6660565138 119.5560077429 -9.8729765857 0.6433958819 1
41.4438325167 119.5560077429 -9.6973131013 0.5347873773 1
43.2216085196 119.5560077429 -9.6717758478 0.4033265104 1
44.9993845224 119.5560077429 -9.3743715188 0.5591031843 1
46.7771605253 119.5560077429 -9.5035513021 0.3081152551 1
48.5549365282 119.5560077429 -9.1447853947 0.6642062949 1
50.3327125311 119.5560077429 0 -0 0
52.110488534 119.5560077429 -9.1375784306 1.1638208809 1
53.8882645369 119.5560077429 0 -0 0
-125.6671117544 117.77823174 0 -0 0
-123.8893357515 117.77823174 -10.2122781056 -0.0056934014 1
-122.1115597486 117.77823174 -10.6940965165 -0.0979892227 1
-120.3337837458 117.77823174 -10.7046814317 -0.3612231199 1
-118.5560077429 117.77823174 -10.3833808547 -0.3681981093 1
-116.77823174 117.77823174 -10.3291188447 -0.2895443994 1
-115.0004557371 117.77823174 -10.251543387 -0.2860805317 1
-113.2226797342 117.77823174 -10.4552829581 -0.2978754379 1
-111.4449037313 117.77823174 -10.8106565949 -0.3581029183 1
-109.6671277285 117.77823174 -10.9769938411 -0.5303540849 1
-107.8893517256 117.77823174 -10.8215293305 -0.5015734827 1
-106.1115757227 117.77823174 -10.7871068769 -0.2962974378 1
-104.3337997198 117.77823174 -10.7377277891 -0.372403723 1
-102.5560237169 117.77823174 -10.6723037912 -0.5112906411 1
-100.778247714 117.77823174 -10.9199495678 -0.6543559659 1
-99.0004717112 117.77823174 -11.1078189257 -0.4813587575 1
-97.2226957083 117.77823174 -10.9049943656 -0.4203551646 1
-95.4449197054 117.77823174 -10.9536846893 -0.5293202227 1
-93.6671437025 117.77823174 -10.8800270249 -0.5669459306 1
-91.8893676996 117.77823174 -10.8884468439 -0.4523304294 1
-90.1115916967 117.77823174 -10.8421593189 -0.2214269186 1
-88.3338156939 117.77823174 -11.1393746315 0.0236556818 1
-86.556039691 117.77823174 -11.2436772865 0.1539624034 1
-84.7782636881 117.77823174 -11.4680468459 -0.1570654217 1
-83.0004876852 117.77823174 -11.4568275804 -0.1614543239 1
-81.2227116823 117.77823174 -11.330143672 -0.1400568147 1
-79.4449356794 117.77823174 -11.3073729304 -0.1847720674 1
-77.6671596766 117.77823174 -11.2635683928 -0.0201803586 1
-75.8893836737 117.77823174 -11.1909288392 0.2069156184 1
-74.1116076708 117.77823174 -11.1270971608 0.221787768 1
-72.3338316679 117.77823174 -11.0223849704 -0.0440221928 1
-70.556055665 117.77823174 -11.0456540279 -0.0497657121 1
-68.7782796621 117.77823174 0 -0 0
-67.0005036592 117.77823174 0 -0 0
-65.2227276564 117.77823174 0 -0 0
-63.4449516535 117.77823174 0 -0 0
-61.6671756506 117.77823174 0 -0 0
-59.8893996477 117.77823174 -11.0004032288 0.1969407105 1
-58.1116236448 117.77823174 -10.6561113911 0.3157059796 1
-56.3338476419 117.77823174 -10.7922418209 0.6896533361 1
-54.5560716391 117.77823174 -11.0095877048 0.9949390738 1
-52.7782956362 117.77823174 -11.0261266349 1.0096078876 1
-51.0005196333 117.77823174 -11.0375764431 0.8864494204 1
-49.2227436304 117.77823174 -11.3001831496 0.706515885 1
-47.4449676275 117.77823174 -11.4764208427 0.5797088296 1
-45.6671916246 117.77823174 -11.2877667806 0.869400719 1
-43.8894156218 117.77823174 -10.9785832967 1.0213899064 1
-42.1116396189 117.77823174 -10.3123708511 1.2011244019 1
-40.333863616 117.77823174 -10.4239391798 1.1560239567 1
-38.5560876131 117.77823174 -10.3802434698 0.9713191906 1
-36.7783116102 117.77823174 -10.4707951858 0.9693187676 1
-35.0005356073 117.77823174 -11.1381503211 0.8333487154 1
-33.2227596045 117.77823174 -10.9700303072 0.6621614817 1
-31.4449836016 117.77823174 -10.5308737442 0.9694777132 1
-29.6672075987 117.77823174 -10.703439938 1.3610021577 1
-27.8894315958 117.77823174 -10.7177393108 1.1124299146 1
-26.1116555929 117.77823174 -10.6120992219 0.6365841338 1
-24.33387959 117.77823174 -10.4582356225 0.333718378 1
-22.5561035872 117.77823174 -10.3807203064 0.6051658944 1
-20.7783275843 117.77823174 -10.7765019145 0.7793974368 1
-19.0005515814 117.77823174 -10.0173077473 0.6722466492 1
-17.2227755785 117.77823174 -10.0944221196 0.7298980659 1
-15.4449995756 117.77823174 -10.4588441979 0.8668246554 1
-13.6672235727 117.77823174 -10.0705960367 1.113555421 1
-11.8894475698 117.77823174 -9.7802912761 1.1512842287 1
-10.111671567 117.77823174 -9.8203928117 1.009278541 1
-8.3338955641 117.77823174 -9.913086713 1.14532735 1