TITLE = "B00057"
VARIABLES = "x", "y", "Vx", "Vy", "isValid"
ZONE T="Frame 0", I=102, J=78, F=POINT
-125.6671117544 126.6671117544 0 -0 0
-123.8893357515 126.6671117544 0 -0 0
-122.1115597486 126.6671117544 0 -0 0
-120.3337837458 126.6671117544 0 -0 0
-118.5560077429 126.6671117544 0 -0 0
-116.77823174 126.6671117544 0 -0 0
-115.0004557371 126.6671117544 0 -0 0
-113.2226797342 126.6671117544 0 -0 0
-111.4449037313 126.6671117544 0 -0 0
-109.6671277285 126.6671117544 0 -0 0
-107.8893517256 126.6671117544 0 -0 0
-106.1115757227 126.6671117544 0 -0 0
-104.3337997198 126.6671117544 0 -0 0
-102.5560237169 126.6671117544 0 -0 0
-100.778247714 126.6671117544 0 -0 0
-99.0004717112 126.6671117544 0 -0 0
-97.2226957083 126.6671117544 0 -0 0
-95.4449197054 126.6671117544 0 -0 0
-93.6671437025 126.6671117544 0 -0 0
-91.8893676996 126.6671117544 0 -0 0
-90.1115916967 126.6671117544 0 -0 0
-88.3338156939 126.6671117544 0 -0 0
-86.556039691 126.6671117544 0 -0 0
-84.7782636881 126.6671117544 0 -0 0
-83.0004876852 126.6671117544 0 -0 0
-81.2227116823 126.6671117544 0 -0 0
-79.4449356794 126.6671117544 0 -0 0
-77.6671596766 126.6671117544 0 -0 0
-75.8893836737 126.6671117544 0 -0 0
-74.1116076708 126.6671117544 0 -0 0
-72.3338316679 126.6671117544 0 -0 0
-70.556055665 126.6671117544 0 -0 0
-68.7782796621 126.6671117544 0 -0 0
-67.0005036592 126.6671117544 0 -0 0
-65.2227276564 126.6671117544 0 -0 0
-63.4449516535 126.6671117544 0 -0 0
-61.6671756506 126.6671117544 0 -0 0
-59.8893996477 126.6671117544 0 -0 0
-58.1116236448 126.6671117544 0 -0 0
-56.3338476419 126.6671117544 0 -0 0
-54.5560716391 126.6671117544 0 -0 0
-52.7782956362 126.6671117544 0 -0 0
-51.0005196333 126.6671117544 0 -0 0
-49.2227436304 126.6671117544 0 -0 0
-47.4449676275 126.6671117544 0 -0 0
-45.6671916246 126.6671117544 0 -0 0
-43.8894156218 126.6671117544 0 -0 0
-42.1116396189 126.6671117544 0 -0 0
-40.333863616 126.6671117544 0 -0 0
-38.5560876131 126.6671117544 0 -0 0
-36.7783116102 126.6671117544 0 -0 0
-35.0005356073 126.6671117544 0 -0 0
-33.2227596045 126.6671117544 0 -0 0
-31.4449836016 126.6671117544 0 -0 0
-29.6672075987 126.6671117544 0 -0 0
-27.8894315958 126.6671117544 0 -0 0
-26.1116555929 126.6671117544 0 -0 0
-24.33387959 126.6671117544 0 -0 0
-22.5561035872 126.6671117544 0 -0 0
-20.7783275843 126.6671117544 0 -0 0
-19.0005515814 126.6671117544 0 -0 0
-17.2227755785 126.6671117544 0 -0 0
-15.4449995756 126.6671117544 0 -0 0
-13.6672235727 126.6671117544 0 -0 0
-11.8894475698 126.6671117544 0 -0 0
-10.111671567 126.6671117544 0 -0 0
-8.3338955641 126.6671117544 0 -0 0
-6.5561195612 126.6671117544 0 -0 0
-4.7783435583 126.6671117544 0 -0 0
-3.0005675554 126.6671117544 0 -0 0
-1.2227915525 126.6671117544 0 -0 0
0.5549844503 126.6671117544 0 -0 0
2.3327604532 126.6671117544 0 -0 0
4.1105364561 126.6671117544 0 -0 0
5.888312459 126.6671117544 0 -0 0
7.6660884619 126.6671117544 0 -0 0
9.4438644648 126.6671117544 0 -0 0
11.2216404676 126.6671117544 0 -0 0
12.9994164705 126.6671117544 0 -0 0
14.7771924734 126.6671117544 0 -0 0
16.5549684763 126.6671117544 0 -0 0
18.3327444792 126.6671117544 0 -0 0
20.1105204821 126.6671117544 0 -0 0
21.8882964849 126.6671117544 0 -0 0
23.6660724878 126.6671117544 0 -0 0
25.4438484907 126.6671117544 0 -0 0
27.2216244936 126.6671117544 0 -0 0
28.9994004965 126.6671117544 0 -0 0
30.7771764994 126.6671117544 0 -0 0
32.5549525023 126.6671117544 0 -0 0
34.3327285051 126.6671117544 0 -0 0
36.110504508 126.6671117544 0 -0 0
37.8882805109 126.6671117544 0 -0 0
39.6660565138 126.6671117544 0 -0 0
41.4438325167 126.6671117544 0 -0 0
43.2216085196 126.6671117544 0 -0 0
44.9993845224 126.6671117544 0 -0 0
46.7771605253 126.6671117544 0 -0 0
48.5549365282 126.6671117544 0 -0 0
50.3327125311 126.6671117544 0 -0 0
52.110488534 126.6671117544 0 -0 0
53.8882645369 126.6671117544 0 -0 0
-125.6671117544 124.8893357515 0 -0 0
-123.8893357515 124.8893357515 -10.3670323729 -0.3358047175 1
-122.1115597486 124.8893357515 -10.465358102 -0.2173659311 1
-120.3337837458 124.8893357515 -10.6050025174 -0.2425938852 1
-118.5560077429 124.8893357515 -10.5760873127 -0.3754007776 1
-116.77823174 124.8893357515 -10.764095569 -0.484063696 1
-115.0004557371 124.8893357515 -10.7965791732 -0.3001865923 1
-113.2226797342 124.8893357515 -10.7033812284 -0.158589008 1
-111.4449037313 124.8893357515 -10.9342589642 -0.3442016254 1
-109.6671277285 124.8893357515 -10.7823786044 -0.3988860583 1
-107.8893517256 124.8893357515 -10.7111681289 -0.2731901898 1
-106.1115757227 124.8893357515 -11.1909402947 -0.0721913557 1
-104.3337997198 124.8893357515 -11.2181414649 0.0189861189 1
-102.5560237169 124.8893357515 -10.8429397272 0.0037831908 1
-100.778247714 124.8893357515 -10.7620765308 -0.0350410526 1
-99.0004717112 124.8893357515 -10.9194541159 -0.0165031315 1
-97.2226957083 124.8893357515 -10.781672657 -0.0809935032 1
-95.4449197054 124.8893357515 -10.7767868709 -0.1165428952 1
-93.6671437025 124.8893357515 -10.8687132512 -0.0962064549 1
-91.8893676996 124.8893357515 -10.8072743479 -0.0653552646 1
-90.1115916967 124.8893357515 -10.9688374995 0.0106565123 1
-88.3338156939 124.8893357515 -10.9686312998 0.0741745954 1
-86.556039691 124.8893357515 -11.2477540254 0.3723707883 1
-84.7782636881 124.8893357515 -11.3625556791 0.4452351568 1
-83.0004876852 124.8893357515 -10.8422910575 0.2906298114 1
-81.2227116823 124.8893357515 -10.7437204663 0.2776420975 1
-79.4449356794 124.8893357515 -11.0105757448 0.3439467397 1
-77.6671596766 124.8893357515 -11.2071470142 0.3736638319 1
-75.8893836737 124.8893357515 -11.0173058722 0.3318138952 1
-74.1116076708 124.8893357515 -10.8160822232 0.4129534564 1
-72.3338316679 124.8893357515 -10.9022307175 0.4225703789 1
-70.556055665 124.8893357515 -11.0322868493 0.2025639467 1
-68.7782796621 124.8893357515 0 -0 0
-67.0005036592 124.8893357515 0 -0 0
-65.2227276564 124.8893357515 0 -0 0
-63.4449516535 124.8893357515 0 -0 0
-61.6671756506 124.8893357515 0 -0 0
-59.8893996477 124.8893357515 0 -0 0
-58.1116236448 124.8893357515 -11.0200351536 0.6683131045 1
-56.3338476419 124.8893357515 -10.9250959673 0.7347036632 1
-54.5560716391 124.8893357515 -10.6788363106 0.9877936833 1
-52.7782956362 124.8893357515 -10.5573260086 1.1162016498 1
-51.0005196333 124.8893357515 -10.5885480719 0.9658477402 1
-49.2227436304 124.8893357515 -10.6630176474 0.8866856909 1
-47.4449676275 124.8893357515 -10.5184043933 1.1467635879 1
-45.6671916246 124.8893357515 -10.4510358182 0.5351296114 1
-43.8894156218 124.8893357515 -10.3838777385 0.3408208103 1
-42.1116396189 124.8893357515 -10.5293702051 0.9387296227 1
-40.333863616 124.8893357515 -10.6538575144 1.080179717 1
-38.5560876131 124.8893357515 -10.498785356 0.7169891088 1
-36.7783116102 124.8893357515 -10.581757803 0.9760803977 1
-35.0005356073 124.8893357515 -10.3347435128 1.1869639275 1
-33.2227596045 124.8893357515 -10.4577186915 0.9892957904 1
-31.4449836016 124.8893357515 -10.4099820411 1.0081057805 1
-29.6672075987 124.8893357515 -10.1375693958 0.975925748 1
-27.8894315958 124.8893357515 -10.1604074387 1.2662419641 1
-26.1116555929 124.8893357515 -9.7878261549 1.2161812719 1
-24.33387959 124.8893357515 -9.7397114719 0.8336666065 1
-22.5561035872 124.8893357515 -9.8656693857 1.0448207733 1
-20.7783275843 124.8893357515 -9.5518020196 1.2275380039 1
-19.0005515814 124.8893357515 -9.6157396616 1.2193258166 1
-17.2227755785 124.8893357515 -9.615162589 1.3247811849 1
-15.4449995756 124.8893357515 -9.6991832176 1.3727311946 1
-13.6672235727 124.8893357515 -9.8294140463 1.1818103682 1
-11.8894475698 124.8893357515 -9.8208524651 0.9148419663 1
-10.111671567 124.8893357515 -9.7874338028 1.2451695057 1
-8.3338955641 124.8893357515 -9.6043829297 1.4152971023 1
-6.5561195612 124.8893357515 -10.0034136141 1.0480054123 1
-4.7783435583 124.8893357515 -10.5197976728 0.7488670015 1
-3.0005675554 124.8893357515 -10.4202504972 0.9150495979 1
-1.2227915525 124.8893357515 -9.9828136965 1.1744974404 1
0.5549844503 124.8893357515 -9.9939484775 1.0130259332 1
2.3327604532 124.8893357515 -10.0934369435 1.0727407783 1
4.1105364561 124.8893357515 -10.1501260952 1.1998571332 1
5.888312459 124.8893357515 -10.0701578624 0.9659723192 1
7.6660884619 124.8893357515 -10.2288929285 0.6434001777 1
9.4438644648 124.8893357515 -10.1358267224 0.8192354951 1
11.2216404676 124.8893357515 -10.1993491013 0.9965285295 1
12.9994164705 124.8893357515 0 -0 0
14.7771924734 124.8893357515 0 -0 0
16.5549684763 124.8893357515 0 -0 0
18.3327444792 124.8893357515 0 -0 0
20.1105204821 124.8893357515 0 -0 0
21.8882964849 124.8893357515 0 -0 0
23.6660724878 124.8893357515 0 -0 0
25.4438484907 124.8893357515 0 -0 0
27.2216244936 124.8893357515 0 -0 0
28.9994004965 124.8893357515 0 -0 0
30.7771764994 124.8893357515 0 -0 0
32.5549525023 124.8893357515 0 -0 0
34.3327285051 124.8893357515 0 -0 0
36.110504508 124.8893357515 -9.2356936642 0.646527539 1
37.8882805109 124.8893357515 -9.4995719353 0.6795509853 1
39.6660565138 124.8893357515 -9.9245880711 0.2375205147 1
41.4438325167 124.8893357515 -9.9024488159 0.1208788155 1
43.2216085196 124.8893357515 -10.0655742161 0.0926838776 1
44.9993845224 124.8893357515 -10.4680702001 0.1228219608 1
46.7771605253 124.8893357515 -10.0999737587 0.0693990688 1
48.5549365282 124.8893357515 -9.3532618299 -0.17725294 1
50.3327125311 124.8893357515 -9.0520342158 -0.078998808 1
52.110488534 124.8893357515 -8.7340213775 0.1903251385 1
53.8882645369 124.8893357515 0 -0 0
-125.6671117544 123.1115597486 0 -0 0
-123.8893357515 123.1115597486 -10.4729588501 -0.441429055 1
-122.1115597486 123.1115597486 -10.5177772027 -0.4893776327 1
-120.3337837458 123.1115597486 -10.5923040558 -0.3752189209 1
-118.5560077429 123.1115597486 -10.5405966303 -0.3039998538 1
-116.77823174 123.1115597486 -10.7481380074 -0.4382057535 1
-115.0004557371 123.1115597486 -10.6215457433 -0.2947896029 1
-113.2226797342 123.1115597486 -10.5554229577 -0.2165926824 1
-111.4449037313 123.1115597486 -10.8501595788 -0.4325581743 1
-109.6671277285 123.1115597486 -10.813347214 -0.3123767145 1
-107.8893517256 123.1115597486 -10.6953709448 -0.3021769917 1
-106.1115757227 123.1115597486 -11.0803098881 -0.309525718 1
-104.3337997198 123.1115597486 -11.2600687265 -0.097415014 1
-102.5560237169 123.1115597486 -10.9700417627 -0.0322688129 1
-100.778247714 123.1115597486 -10.6528179245 -0.114250356 1
-99.0004717112 123.1115597486 -10.8069507291 0.0619128761 1
-97.2226957083 123.1115597486 -10.924806715 -0.0620560703 1
-95.4449197054 123.1115597486 -10.743481332 -0.1780304845 1
-93.6671437025 123.1115597486 -10.9098214421 -0.0253195984 1
-91.8893676996 123.1115597486 -11.0375320529 0.0116101857 1
-90.1115916967 123.1115597486 -10.9245446697 0.2027830338 1
-88.3338156939 123.1115597486 -10.529544902 0.1437970472 1
-86.556039691 123.1115597486 -11.0816215469 0.0867771169 1
-84.7782636881 123.1115597486 -11.2505563359 0.3343427047 1
-83.0004876852 123.1115597486 -10.8997892564 0.4243560105 1
-81.2227116823 123.1115597486 -10.7546290005 0.2322695834 1
-79.4449356794 123.1115597486 -11.0875182841 0.2433356312 1
-77.6671596766 123.1115597486 -11.3612024939 0.459500163 1
-75.8893836737 123.1115597486 -10.9675716628 0.4807487502 1
-74.1116076708 123.1115597486 -10.7099925046 0.5374651088 1
-72.3338316679 123.1115597486 -10.9315611854 0.5673726493 1
-70.556055665 123.1115597486 -11.0578985639 0.3020237739 1
-68.7782796621 123.1115597486 0 -0 0
-67.0005036592 123.1115597486 0 -0 0
-65.2227276564 123.1115597486 0 -0 0
-63.4449516535 123.1115597486 0 -0 0
-61.6671756506 123.1115597486 0 -0 0
-59.8893996477 123.1115597486 -10.3613976811 0.9882877033 1
-58.1116236448 123.1115597486 -11.3566703975 0.9088220822 1
-56.3338476419 123.1115597486 -10.8963397082 0.4455129535 1
-54.5560716391 123.1115597486 -10.6870169952 0.7132646277 1
-52.7782956362 123.1115597486 -10.7812688494 0.9783557536 1
-51.0005196333 123.1115597486 -10.6795222108 1.2117966656 1
-49.2227436304 123.1115597486 -10.3906665755 0.7298722909 1
-47.4449676275 123.1115597486 -10.3764015694 0.6326978432 1
-45.6671916246 123.1115597486 -10.7046026749 0.4333958604 1
-43.8894156218 123.1115597486 -10.5800595198 0.2897949892 1
-42.1116396189 123.1115597486 -10.3851321197 0.9125164925 1
-40.333863616 123.1115597486 -10.7571807211 1.2727973946 1
-38.5560876131 123.1115597486 -10.682111162 0.8622538965 1
-36.7783116102 123.1115597486 -10.635229381 0.6952321821 1
-35.0005356073 123.1115597486 -10.4289280657 1.0265162587 1
-33.2227596045 123.1115597486 -10.5881872225 0.9387453741 1
-31.4449836016 123.1115597486 -10.8852421577 0.8080849628 1
-29.6672075987 123.1115597486 -10.5336230728 1.4823993362 1
-27.8894315958 123.1115597486 -10.4903970397 1.3655514374 1
-26.1116555929 123.1115597486 -10.2648088977 1.108371791 1
-24.33387959 123.1115597486 -9.7589997306 0.9072698571 1
-22.5561035872 123.1115597486 -9.5887303717 1.0452661072 1
-20.7783275843 123.1115597486 -9.795206384 1.1868751471 1
-19.0005515814 123.1115597486 -10.0158729414 1.1324842623 1
-17.2227755785 123.1115597486 -9.9592281799 1.2545487258 1
-15.4449995756 123.1115597486 -10.0948545661 1.0516683199 1
-13.6672235727 123.1115597486 -10.3470596459 0.999204829 1
-11.8894475698 123.1115597486 -10.1578442625 1.207440698 1
-10.111671567 123.1115597486 -9.7303694823 0.9273227728 1
-8.3338955641 123.1115597486 -9.6375825048 1.1663955126 1
-6.5561195612 123.1115597486 -10.3466658619 1.3439663437 1
-4.7783435583 123.1115597486 -10.4414962206 0.8445865962 1
-3.0005675554 123.1115597486 -10.0193668798 0.9087547809 1
-1.2227915525 123.1115597486 -9.7394308113 1.0295992299 1
0.5549844503 123.1115597486 -9.8402366639 1.0966527777 1
2.3327604532 123.1115597486 -10.0748202656 1.4360087114 1
4.1105364561 123.1115597486 -10.1551565074 1.4442524014 1
5.888312459 123.1115597486 -9.8511852924 0.8767666287 1
7.6660884619 123.1115597486 -10.1222848469 0.419407219 1
9.4438644648 123.1115597486 -9.8258800135 0.7469224243 1
11.2216404676 123.1115597486 -9.9115344878 1.1121463901 1
12.9994164705 123.1115597486 0 -0 0
14.7771924734 123.1115597486 0 -0 0
16.5549684763 123.1115597486 0 -0 0
18.3327444792 123.1115597486 0 -0 0
20.1105204821 123.1115597486 0 -0 0
21.8882964849 123.1115597486 0 -0 0
23.6660724878 123.1115597486 0 -0 0
25.4438484907 123.1115597486 0 -0 0
27.2216244936 123.1115597486 0 -0 0
28.9994004965 123.1115597486 0 -0 0
30.7771764994 123.1115597486 0 -0 0
32.5549525023 123.1115597486 0 -0 0
34.3327285051 123.1115597486 0 -0 0
36.110504508 123.1115597486 -9.5268590219 0.3940962123 1
37.8882805109 123.1115597486 -9.1652277986 0.6869183269 1
39.6660565138 123.1115597486 -9.1380166048 0.4941259524 1
41.4438325167 123.1115597486 -9.4549826935 0.4524578722 1
43.2216085196 123.1115597486 -9.988726185 0.4509199665 1
44.9993845224 123.1115597486 -10.4306506919 0.4756868353 1
46.7771605253 123.1115597486 -9.1591921631 0.4515929792 1
48.5549365282 123.1115597486 -8.7741930783 0.482902391 1
50.3327125311 123.1115597486 -9.0384651334 0.5615432135 1
52.110488534 123.1115597486 -8.8191173946 0.4072772384 1
53.8882645369 123.1115597486 0 -0 0
-125.6671117544 121.3337837458 0 -0 0
-123.8893357515 121.3337837458 -10.3948449823 -0.407533556 1
-122.1115597486 121.3337837458 -10.5924100195 -0.5182914055 1
-120.3337837458 121.3337837458 -10.6775475628 -0.3626092397 1
-118.5560077429 121.3337837458 -10.4819643333 -0.1329558143 1
-116.77823174 121.3337837458 -10.4746041515 -0.1917771277 1
-115.0004557371 121.3337837458 -10.4045707323 -0.3958746842 1
-113.2226797342 121.3337837458 -10.5325534121 -0.4734916682 1
-111.4449037313 121.3337837458 -10.8571632071 -0.3696042764 1
-109.6671277285 121.3337837458 -10.9415819155 -0.2069657364 1
-107.8893517256 121.3337837458 -10.7333560702 -0.2966797663 1
-106.1115757227 121.3337837458 -10.9314022399 -0.2953867227 1
-104.3337997198 121.3337837458 -11.0871560027 -0.0612427272 1
-102.5560237169 121.3337837458 -10.9522642028 -0.1970466742 1
-100.778247714 121.3337837458 -10.7502687371 -0.2778755041 1
-99.0004717112 121.3337837458 -10.8674631659 0.0272699034 1
-97.2226957083 121.3337837458 -11.1138559932 0.0680315642 1
-95.4449197054 121.3337837458 -11.138647205 0.0144210878 1
-93.6671437025 121.3337837458 -11.2192139894 0.1094204157 1
-91.8893676996 121.3337837458 -11.2183734395 0.1676088106 1
-90.1115916967 121.3337837458 -11.0417877845 0.3732457049 1
-88.3338156939 121.3337837458 -10.6515893183 0.2783652282 1
-86.556039691 121.3337837458 -10.8501524191 0.0463233236 1
-84.7782636881 121.3337837458 -11.2609737139 0.1527667319 1
-83.0004876852 121.3337837458 -11.2451421632 0.2513416189 1
-81.2227116823 121.3337837458 -11.0747969114 0.265089694 1
-79.4449356794 121.3337837458 -11.3034150427 0.2999861204 1
-77.6671596766 121.3337837458 -11.5904506797 0.2340981733 1
-75.8893836737 121.3337837458 -11.1811415156 0.2355415709 1
-74.1116076708 121.3337837458 -10.7118654847 0.3747506759 1
-72.3338316679 121.3337837458 -10.9971283775 0.6640287341 1
-70.556055665 121.3337837458 -11.2871338622 0.550939683 1
-68.7782796621 121.3337837458 0 -0 0
-67.0005036592 121.3337837458 0 -0 0
-65.2227276564 121.3337837458 0 -0 0
-63.4449516535 121.3337837458 0 -0 0
-61.6671756506 121.3337837458 0 -0 0
-59.8893996477 121.3337837458 -10.7248446069 0.7336096596 1
-58.1116236448 121.3337837458 -10.9910326004 0.8880302844 1
-56.3338476419 121.3337837458 -10.9776468066 0.705208522 1
-54.5560716391 121.3337837458 -10.4872739743 0.2920946881 1
-52.7782956362 121.3337837458 -10.7136253414 0.4938653389 1
-51.0005196333 121.3337837458 -10.784633913 0.9829150569 1
-49.2227436304 121.3337837458 -10.4040466416 0.8271512704 1
-47.4449676275 121.3337837458 -10.3466916368 0.5901648701 1
-45.6671916246 121.3337837458 -10.8187370436 0.7437492408 1
-43.8894156218 121.3337837458 -10.8173222849 0.7730410463 1
-42.1116396189 121.3337837458 -10.5723971982 0.8313754993 1
-40.333863616 121.3337837458 -10.6785527861 0.7992642001 1
-38.5560876131 121.3337837458 -10.7981700607 0.7359308375 1
-36.7783116102 121.3337837458 -10.7093080363 0.7013608939 1
-35.0005356073 121.3337837458 -10.5144636889 1.1498179201 1
-33.2227596045 121.3337837458 -10.2870140222 1.0466250202 1
-31.4449836016 121.3337837458 -10.6152895887 0.6159770565 1
-29.6672075987 121.3337837458 -10.0214961776 1.4477033816 1
-27.8894315958 121.3337837458 -10.3839507676 1.1760281864 1
-26.1116555929 121.3337837458 -10.6312972683 1.0532019298 1
-24.33387959 121.3337837458 -10.5015146374 1.1391513842 1
-22.5561035872 121.3337837458 -10.1687971868 1.0431783358 1
-20.7783275843 121.3337837458 -9.8111911525 1.0859046211 1
-19.0005515814 121.3337837458 -10.1156220208 1.3363913706 1
-17.2227755785 121.3337837458 -10.3517363685 1.3958742411 1
-15.4449995756 121.3337837458 -10.3277355887 1.1151720835 1
-13.6672235727 121.3337837458 -10.7224131694 1.09353544 1
-11.8894475698 121.3337837458 -10.7479618785 1.6253859042 1
-10.111671567 121.3337837458 -9.7517583999 1.1187075483 1
-8.3338955641 121.3337837458 -10.0040264852 1.2139259633 1
-6.5561195612 121.3337837458 -10.3566264504 1.4657759216 1
-4.7783435583 121.3337837458 -10.1666005878 1.2030560916 1
-3.0005675554 121.3337837458 -9.7383339437 0.9516042132 1
-1.2227915525 121.3337837458 -9.6169138541 0.8849115147 1
0.5549844503 121.3337837458 -9.8800432195 0.9121141168 1
2.3327604532 121.3337837458 -9.8200935358 1.0877131638 1
4.1105364561 121.3337837458 -10.0639074356 1.172756199 1
5.888312459 121.3337837458 -9.9669005251 0.9264120577 1
7.6660884619 121.3337837458 -9.5470307888 0.6424508001 1
9.4438644648 121.3337837458 -9.5167953336 1.0321165839 1
11.2216404676 121.3337837458 -10.2366110959 1.3955835569 1
12.9994164705 121.3337837458 0 -0 0
14.7771924734 121.3337837458 0 -0 0
16.5549684763 121.3337837458 0 -0 0
18.3327444792 121.3337837458 0 -0 0
20.1105204821 121.3337837458 0 -0 0
21.8882964849 121.3337837458 0 -0 0
23.6660724878 121.3337837458 0 -0 0
25.4438484907 121.3337837458 0 -0 0
27.2216244936 121.3337837458 0 -0 0
28.9994004965 121.3337837458 0 -0 0
30.7771764994 121.3337837458 0 -0 0
32.5549525023 121.3337837458 0 -0 0
34.3327285051 121.3337837458 0 -0 0
36.110504508 121.3337837458 -9.666585058 0.2944344813 1
37.8882805109 121.3337837458 -9.1062074453 0.4435955832 1
39.6660565138 121.3337837458 -8.8784098168 0.5530417738 1
41.4438325167 121.3337837458 -9.3019181177 0.617472004 1
43.2216085196 121.3337837458 -9.8023417509 0.5230339974 1
44.9993845224 121.3337837458 -9.8720028651 0.411852293 1
46.7771605253 121.3337837458 -9.2857199898 0.857156183 1
48.5549365282 121.3337837458 -9.4616154488 0.9809719116 1
50.3327125311 121.3337837458 -9.6506532714 0.6368461792 1
52.110488534 121.3337837458 0 -0 0
53.8882645369 121.3337837458 0 -0 0
-125.6671117544 119.5560077429 0 -0 0
-123.8893357515 119.5560077429 -10.3407906039 -0.4908453732 1
-122.1115597486 119.5560077429 -10.6115765631 -0.4657548856 1
-120.3337837458 119.5560077429 -10.7987815 -0.4380067136 1
-118.5560077429 119.5560077429 -10.564033225 -0.2667335634 1
-116.77823174 119.5560077429 -10.4189588855 -0.1567847611 1
-115.0004557371 119.5560077429 -10.5318360092 -0.2424492591 1
-113.2226797342 119.5560077429 -10.7695799068 -0.4468632748 1
-111.4449037313 119.5560077429 -10.940336126 -0.308537678 1
-109.6671277285 119.5560077429 -10.9013572329 -0.1035107911 1
-107.8893517256 119.5560077429 -10.8596504903 -0.1378659434 1
-106.1115757227 119.5560077429 -10.9186178617 -0.2031696582 1
-104.3337997198 119.5560077429 -10.9576382811 -0.174142762 1
-102.5560237169 119.5560077429 -10.8124150197 -0.2778568888 1
-100.778247714 119.5560077429 -10.9869372463 -0.2372885401 1
-99.0004717112 119.5560077429 -11.1798040818 -0.0986421883 1
-97.2226957083 119.5560077429 -11.0340180672 -0.0806684523 1
-95.4449197054 119.5560077429 -11.0978454497 0.1473181926 1
-93.6671437025 119.5560077429 -11.2399528054 0.2466691921 1
-91.8893676996 119.5560077429 -11.2645965271 0.1389255805 1
-90.1115916967 119.5560077429 -11.1487352363 0.3860286511 1
-88.3338156939 119.5560077429 -10.9821330809 0.4567451066 1
-86.556039691 119.5560077429 -10.9294948931 0.0081792527 1
-84.7782636881 119.5560077429 -11.0343975318 0.004469091 1
-83.0004876852 119.5560077429 -11.2040196529 0.1312632589 1
-81.2227116823 119.5560077429 -11.0531702914 0.0807787119 1
-79.4449356794 119.5560077429 -11.1327433081 0.2250382763 1
-77.6671596766 119.5560077429 -11.5285449633 0.0886873275 1
-75.8893836737 119.5560077429 -11.361570503 0.1330818252 1
-74.1116076708 119.5560077429 -10.8883566315 0.5200956524 1
-72.3338316679 119.5560077429 -11.0545263405 0.5941499647 1
-70.556055665 119.5560077429 -11.3500877601 0.3367512312 1
-68.7782796621 119.5560077429 0 -0 0
-67.0005036592 119.5560077429 0 -0 0
-65.2227276564 119.5560077429 0 -0 0
-63.4449516535 119.5560077429 0 -0 0
-61.6671756506 119.5560077429 0 -0 0
-59.8893996477 119.5560077429 -10.71983281 0.7918410128 1
-58.1116236448 119.5560077429 -10.7655976762 1.0263215146 1
-56.3338476419 119.5560077429 -10.5831023965 0.8324265448 1
-54.5560716391 119.5560077429 -10.3429700196 0.5234521244 1
-52.7782956362 119.5560077429 -10.9470691173 0.5919834364 1
-51.0005196333 119.5560077429 -11.0439672002 0.6954698845 1
-49.2227436304 119.5560077429 -10.6523009935 0.6445085008 1
-47.4449676275 119.5560077429 -10.554059749 0.7820694406 1
-45.6671916246 119.5560077429 -10.7091462268 0.8807660427 1
-43.8894156218 119.5560077429 -10.80623619 0.9729100782 1
-42.1116396189 119.5560077429 -10.8226720202 0.9250259378 1
-40.333863616 119.5560077429 -10.7109834084 0.8065671043 1
-38.5560876131 119.5560077429 -10.7782546115 0.8277011362 1
-36.7783116102 119.5560077429 -10.6687310959 1.0602871788 1
-35.0005356073 119.5560077429 -10.5938133226 1.2355626069 1
-33.2227596045 119.5560077429 -10.4015994527 0.7855963137 1
-31.4449836016 119.5560077429 -10.3523764466 0.5736975371 1
-29.6672075987 119.5560077429 -9.9626161547 0.9867956197 1
-27.8894315958 119.5560077429 -10.2324584641 1.1181834576 1
-26.1116555929 119.5560077429 -10.5917584859 1.128466233 1
-24.33387959 119.5560077429 -10.7707483715 1.2911062049 1
-22.5561035872 119.5560077429 -10.2398759237 1.5550403217 1
-20.7783275843 119.5560077429 -9.6934253788 1.5224937121 1
-19.0005515814 119.5560077429 -9.9991378353 1.368326541 1
-17.2227755785 119.5560077429 -10.3705177197 1.5306242787 1
-15.4449995756 119.5560077429 -10.4199297422 1.3182386419 1
-13.6672235727 119.5560077429 -10.6809570167 0.8040325669 1
-11.8894475698 119.5560077429 -10.5073211622 0.4179323187 1
-10.111671567 119.5560077429 -9.830532393 0.6170825157 1
-8.3338955641 119.5560077429 -9.9910989129 1.1084548436 1
-6.5561195612 119.5560077429 -10.0771457394 1.1761685167 1
-4.7783435583 119.5560077429 -10.126874221 1.4441335502 1
-3.0005675554 119.5560077429 -9.7063629747 1.2770316471 1
-1.2227915525 119.5560077429 -9.5078056017 1.0944704981 1
0.5549844503 119.5560077429 -9.6921437907 1.0327179995 1
2.3327604532 119.5560077429 -9.8415139562 0.8333143488 1
4.1105364561 119.5560077429 -9.9092362209 0.9903525636 1
5.888312459 119.5560077429 -9.965421329 0.9479327139 1
7.6660884619 119.5560077429 -9.814042149 0.910455928 1
9.4438644648 119.5560077429 -9.9155224463 1.3997204373 1
11.2216404676 119.5560077429 -10.2280122842 1.4611937072 1
12.9994164705 119.5560077429 0 -0 0
14.7771924734 119.5560077429 0 -0 0
16.5549684763 119.5560077429 0 -0 0
18.3327444792 119.5560077429 0 -0 0
20.1105204821 119.5560077429 0 -0 0
21.8882964849 119.5560077429 0 -0 0
23.6660724878 119.5560077429 0 -0 0
25.4438484907 119.5560077429 0 -0 0
27.2216244936 119.5560077429 0 -0 0
28.9994004965 119.5560077429 0 -0 0
30.7771764994 119.5560077429 0 -0 0
32.5549525023 119.5560077429 0 -0 0
34.3327285051 119.5560077429 0 -0 0
36.110504508 119.5560077429 -9.7278664477 0.2980100405 1
37.8882805109 119.5560077429 -9.2175423675 0.2137216387 1
39.6660565138 119.5560077429 -9.7774818059 0.5691869199 1
41.4438325167 119.5560077429 -8.9543013106 0.5180279282 1
43.2216085196 119.5560077429 -9.6181596436 0.667781854 1
44.9993845224 119.5560077429 -10.1891722895 0.985035763 1
46.7771605253 119.5560077429 -9.6838771896 1.0181365342 1
48.5549365282 119.5560077429 -9.7766255046 0.4644446587 1
50.3327125311 119.5560077429 -9.8207221584 0.1875987209 1
52.110488534 119.5560077429 -9.1064079172 0.2825837293 1
53.8882645369 119.5560077429 0 -0 0
-125.6671117544 117.77823174 0 -0 0
-123.8893357515 117.77823174 -10.1940265729 -0.776579375 1
-122.1115597486 117.77823174 -10.6606678306 -0.5676576058 1
-120.3337837458 117.77823174 -10.8340674146 -0.4907551609 1
-118.5560077429 117.77823174 -10.5688674611 -0.4518106344 1
-116.77823174 117.77823174 -10.4851231974 -0.3679460875 1
-115.0004557371 117.77823174 -10.7032537855 -0.336088242 1
-113.2226797342 117.77823174 -10.9385934526 -0.3102488487 1
-111.4449037313 117.77823174 -10.7958603383 -0.2927662689 1
-109.6671277285 117.77823174 -10.8514211197 -0.1512703525 1
-107.8893517256 117.77823174 -11.0571424985 -0.060804553 1
-106.1115757227 117.77823174 -11.0435891675 -0.3051296561 1
-104.3337997198 117.77823174 -11.1185985851 -0.496084849 1
-102.5560237169 117.77823174 -11.1683356584 -0.2957074777 1
-100.778247714 117.77823174 -11.2288638466 -0.1927895106 1
-99.0004717112 117.77823174 -11.2600973654 -0.2665717539 1
-97.2226957083 117.77823174 -11.0733606735 -0.1624752986 1
-95.4449197054 117.77823174 -11.0027730928 0.0907922823 1
-93.6671437025 117.77823174 -11.1863695359 0.1506445938 1
-91.8893676996 117.77823174 -11.3002919772 -0.0381340473 1
-90.1115916967 117.77823174 -11.3357912512 0.2301159427 1
-88.3338156939 117.77823174 -11.2212373235 0.2425179923 1
-86.556039691 117.77823174 -11.1289543896 0.0027049384 1
-84.7782636881 117.77823174 -11.0618335405 0.0413415974 1
-83.0004876852 117.77823174 -11.0792473871 -0.21087637 1
-81.2227116823 117.77823174 -11.0121737921 -0.3136210721 1
-79.4449356794 117.77823174 -11.0572226872 0.1807669256 1
-77.6671596766 117.77823174 -11.4169737708 0.1994423132 1
-75.8893836737 117.77823174 -11.3103814405 0.2780072427 1
-74.1116076708 117.77823174 -11.0189039194 0.5710556042 1
-72.3338316679 117.77823174 -11.1962556634 0.5685182029 1
-70.556055665 117.77823174 -11.2844017169 0.2913472144 1
-68.7782796621 117.77823174 0 -0 0
-67.0005036592 117.77823174 0 -0 0
-65.2227276564 117.77823174 0 -0 0
-63.4449516535 117.77823174 0 -0 0
-61.6671756506 117.77823174 0 -0 0
-59.8893996477 117.77823174 -10.8010940863 0.962051662 1
-58.1116236448 117.77823174 -10.8018000337 0.9342963303 1
-56.3338476419 117.77823174 -10.6540436669 0.8324895502 1
-54.5560716391 117.77823174 -10.6324614371 0.7401350192 1
-52.7782956362 117.77823174 -11.0728838369 0.7563030763 1
-51.0005196333 117.77823174 -11.2570072345 0.7445826311 1
-49.2227436304 117.77823174 -10.9039046577 0.9086516811 1
-47.4449676275 117.77823174 -10.595682007 1.1547624158 1
-45.6671916246 117.77823174 -10.7789004173 0.9086660005 1
-43.8894156218 117.77823174 -10.7929821349 0.8534145186 1
-42.1116396189 117.77823174 -10.5716511564 1.0079812015 1
-40.333863616 117.77823174 -10.555760896 1.1575862055 1
-38.5560876131 117.77823174 -10.668557831 1.2111780666 1
-36.7783116102 117.77823174 -10.5812365761 1.204281834 1
-35.0005356073 117.77823174 -10.3779337473 1.2962282615 1
-33.2227596045 117.77823174 -10.3832806187 1.2797924312 1
-31.4449836016 117.77823174 -10.7751344098 1.0393593465 1
-29.6672075987 117.77823174 -10.5977454354 1.1682298303 1
-27.8894315958 117.77823174 -10.1782222291 1.3230900614 1
-26.1116555929 117.77823174 -10.2255522079 1.3730032635 1
-24.33387959 117.77823174 -10.3750125856 1.3445290969 1
-22.5561035872 117.77823174 -9.5907622974 1.6792312191 1
-20.7783275843 117.77823174 -9.9244864032 1.3495938758 1
-19.0005515814 117.77823174 -10.0443284927 0.9793910476 1
-17.2227755785 117.77823174 -10.0045577357 1.2630687807 1
-15.4449995756 117.77823174 -10.1900128395 1.1683701606 1
-13.6672235727 117.77823174 -10.3248287465 0.8409279844 1
-11.8894475698 117.77823174 -9.9777532135 0.470014913 1
-10.111671567 117.77823174 0 -0 0
-8.3338955641 117.77823174 -10.3570660566 0.8589776133 1
-6.5561195612 117.77823174 -10.083179943 1.3907937109 1