TITLE = "B00063"
VARIABLES = "x", "y", "Vx", "Vy", "isValid"
ZONE T="Frame 0", I=102, J=78, F=POINT
-125.6671117544 126.6671117544 0 -0 0
-123.8893357515 126.6671117544 0 -0 0
-122.1115597486 126.6671117544 0 -0 0
-120.3337837458 126.6671117544 0 -0 0
-118.5560077429 126.6671117544 0 -0 0
-116.77823174 126.6671117544 0 -0 0
-115.0004557371 126.6671117544 0 -0 0
-113.2226797342 126.6671117544 0 -0 0
-111.4449037313 126.6671117544 0 -0 0
-109.6671277285 126.6671117544 0 -0 0
-107.8893517256 126.6671117544 0 -0 0
-106.1115757227 126.6671117544 0 -0 0
-104.3337997198 126.6671117544 0 -0 0
-102.5560237169 126.6671117544 0 -0 0
-100.778247714 126.6671117544 0 -0 0
-99.0004717112 126.6671117544 0 -0 0
-97.2226957083 126.6671117544 0 -0 0
-95.4449197054 126.6671117544 0 -0 0
-93.6671437025 126.6671117544 0 -0 0
-91.8893676996 126.6671117544 0 -0 0
-90.1115916967 126.6671117544 0 -0 0
-88.3338156939 126.6671117544 0 -0 0
-86.556039691 126.6671117544 0 -0 0
-84.7782636881 126.6671117544 0 -0 0
-83.0004876852 126.6671117544 0 -0 0
-81.2227116823 126.6671117544 0 -0 0
-79.4449356794 126.6671117544 0 -0 0
-77.6671596766 126.6671117544 0 -0 0
-75.8893836737 126.6671117544 0 -0 0
-74.1116076708 126.6671117544 0 -0 0
-72.3338316679 126.6671117544 0 -0 0
-70.556055665 126.6671117544 0 -0 0
-68.7782796621 126.6671117544 0 -0 0
-67.0005036592 126.6671117544 0 -0 0
-65.2227276564 126.6671117544 0 -0 0
-63.4449516535 126.6671117544 0 -0 0
-61.6671756506 126.6671117544 0 -0 0
-59.8893996477 126.6671117544 0 -0 0
-58.1116236448 126.6671117544 0 -0 0
-56.3338476419 126.6671117544 0 -0 0
-54.5560716391 126.6671117544 0 -0 0
-52.7782956362 126.6671117544 0 -0 0
-51.0005196333 126.6671117544 0 -0 0
-49.2227436304 126.6671117544 0 -0 0
-47.4449676275 126.6671117544 0 -0 0
-45.6671916246 126.6671117544 0 -0 0
-43.8894156218 126.6671117544 0 -0 0
-42.1116396189 126.6671117544 0 -0 0
-40.333863616 126.6671117544 0 -0 0
-38.5560876131 126.6671117544 0 -0 0
-36.7783116102 126.6671117544 0 -0 0
-35.0005356073 126.6671117544 0 -0 0
-33.2227596045 126.6671117544 0 -0 0
-31.4449836016 126.6671117544 0 -0 0
-29.6672075987 126.6671117544 0 -0 0
-27.8894315958 126.6671117544 0 -0 0
-26.1116555929 126.6671117544 0 -0 0
-24.33387959 126.6671117544 0 -0 0
-22.5561035872 126.6671117544 0 -0 0
-20.7783275843 126.6671117544 0 -0 0
-19.0005515814 126.6671117544 0 -0 0
-17.2227755785 126.6671117544 0 -0 0
-15.4449995756 126.6671117544 0 -0 0
-13.6672235727 126.6671117544 0 -0 0
-11.8894475698 126.6671117544 0 -0 0
-10.111671567 126.6671117544 0 -0 0
-8.3338955641 126.6671117544 0 -0 0
-6.5561195612 126.6671117544 0 -0 0
-4.7783435583 126.6671117544 0 -0 0
-3.0005675554 126.6671117544 0 -0 0
-1.2227915525 126.6671117544 0 -0 0
0.5549844503 126.6671117544 0 -0 0
2.3327604532 126.6671117544 0 -0 0
4.1105364561 126.6671117544 0 -0 0
5.888312459 126.6671117544 0 -0 0
7.6660884619 126.6671117544 0 -0 0
9.4438644648 126.6671117544 0 -0 0
11.2216404676 126.6671117544 0 -0 0
12.9994164705 126.6671117544 0 -0 0
14.7771924734 126.6671117544 0 -0 0
16.5549684763 126.6671117544 0 -0 0
18.3327444792 126.6671117544 0 -0 0
20.1105204821 126.6671117544 0 -0 0
21.8882964849 126.6671117544 0 -0 0
23.6660724878 126.6671117544 0 -0 0
25.4438484907 126.6671117544 0 -0 0
27.2216244936 126.6671117544 0 -0 0
28.9994004965 126.6671117544 0 -0 0
30.7771764994 126.6671117544 0 -0 0
32.5549525023 126.6671117544 0 -0 0
34.3327285051 126.6671117544 0 -0 0
36.110504508 126.6671117544 0 -0 0
37.8882805109 126.6671117544 0 -0 0
39.6660565138 126.6671117544 0 -0 0
41.4438325167 126.6671117544 0 -0 0
43.2216085196 126.6671117544 0 -0 0
44.9993845224 126.6671117544 0 -0 0
46.7771605253 126.6671117544 0 -0 0
48.5549365282 126.6671117544 0 -0 0
50.3327125311 126.6671117544 0 -0 0
52.110488534 126.6671117544 0 -0 0
53.8882645369 126.6671117544 0 -0 0
-125.6671117544 124.8893357515 0 -0 0
-123.8893357515 124.8893357515 -10.2471859875 -0.1197790841 1
-122.1115597486 124.8893357515 -10.6725615408 -0.3349928064 1
-120.3337837458 124.8893357515 -10.3714069557 -0.6889087263 1
-118.5560077429 124.8893357515 -10.5022492237 -0.5075060184 1
-116.77823174 124.8893357515 -10.3891888114 -0.3412403693 1
-115.0004557371 124.8893357515 -10.1934165656 -0.1175366629 1
-113.2226797342 124.8893357515 -10.3855430871 -0.0161050516 1
-111.4449037313 124.8893357515 -10.7424517657 -0.141974185 1
-109.6671277285 124.8893357515 -10.8016568395 -0.2550933069 1
-107.8893517256 124.8893357515 -10.4853079179 -0.3740833909 1
-106.1115757227 124.8893357515 -10.5223236185 -0.4016955285 1
-104.3337997198 124.8893357515 -10.7519412453 -0.2390498288 1
-102.5560237169 124.8893357515 -10.7881822653 -0.2087427764 1
-100.778247714 124.8893357515 -10.7228499117 -0.3059143603 1
-99.0004717112 124.8893357515 -10.7017975005 -0.1917885832 1
-97.2226957083 124.8893357515 -10.8823825695 -0.1137491763 1
-95.4449197054 124.8893357515 -10.7040012592 -0.1214129299 1
-93.6671437025 124.8893357515 -10.7211330133 -0.1301978941 1
-91.8893676996 124.8893357515 -10.9991961017 0.0289123408 1
-90.1115916967 124.8893357515 -10.9463058922 0.018242941 1
-88.3338156939 124.8893357515 -10.9289708024 0.0071239114 1
-86.556039691 124.8893357515 -10.9166689887 -0.0404767044 1
-84.7782636881 124.8893357515 -10.7552275522 -0.1208057865 1
-83.0004876852 124.8893357515 -10.6150175197 0.0853451749 1
-81.2227116823 124.8893357515 -10.9600940617 0.2316495525 1
-79.4449356794 124.8893357515 -10.9067169918 0.1072538874 1
-77.6671596766 124.8893357515 -10.6891734999 0.2432253716 1
-75.8893836737 124.8893357515 -10.689540077 0.2573586391 1
-74.1116076708 124.8893357515 -10.5630738238 0.0709813647 1
-72.3338316679 124.8893357515 -10.7456965463 0.1964166197 1
-70.556055665 124.8893357515 -11.1322965422 0.3342238535 1
-68.7782796621 124.8893357515 0 -0 0
-67.0005036592 124.8893357515 0 -0 0
-65.2227276564 124.8893357515 0 -0 0
-63.4449516535 124.8893357515 0 -0 0
-61.6671756506 124.8893357515 0 -0 0
-59.8893996477 124.8893357515 -10.3731954513 0.7392558068 1
-58.1116236448 124.8893357515 -10.556674475 0.2673951206 1
-56.3338476419 124.8893357515 -10.4056217778 0.2518771652 1
-54.5560716391 124.8893357515 -10.5077292657 0.5568206688 1
-52.7782956362 124.8893357515 -10.8434008126 0.6113447242 1
-51.0005196333 124.8893357515 -10.7377363807 0.5161621077 1
-49.2227436304 124.8893357515 -10.4180925606 0.448339607 1
-47.4449676275 124.8893357515 -10.5536988996 0.3320329823 1
-45.6671916246 124.8893357515 -10.2683028362 0.467004971 1
-43.8894156218 124.8893357515 -10.058098047 0.770456391 1
-42.1116396189 124.8893357515 -10.0224641704 0.6863971 1
-40.333863616 124.8893357515 -10.4091815856 0.693014104 1
-38.5560876131 124.8893357515 -10.6642347981 0.6841389275 1
-36.7783116102 124.8893357515 -10.4004395797 0.8138528251 1
-35.0005356073 124.8893357515 -10.1210891754 1.0467939893 1
-33.2227596045 124.8893357515 -9.9997850731 0.7854831903 1
-31.4449836016 124.8893357515 -10.0313479385 0.3640655247 1
-29.6672075987 124.8893357515 -10.2954853911 0.2459274462 1
-27.8894315958 124.8893357515 -10.7145045538 0.1990227542 1
-26.1116555929 124.8893357515 -10.8255831583 0.6192819786 1
-24.33387959 124.8893357515 -10.7819948439 0.9436139769 1
-22.5561035872 124.8893357515 -10.6022030708 1.4678178709 1
-20.7783275843 124.8893357515 -10.178939632 1.4897724055 1
-19.0005515814 124.8893357515 -10.1640488672 1.0011107438 1
-17.2227755785 124.8893357515 -10.4733039481 0.7015112478 1
-15.4449995756 124.8893357515 -10.2666503751 0.8607102631 1
-13.6672235727 124.8893357515 -10.0513278252 0.9082049152 1
-11.8894475698 124.8893357515 -10.0177244424 1.1012235366 1
-10.111671567 124.8893357515 -10.7438493411 1.3128803149 1
-8.3338955641 124.8893357515 -10.7460846026 1.1523667769 1
-6.5561195612 124.8893357515 -10.1620326929 0.99488466 1
-4.7783435583 124.8893357515 -9.7123470603 0.9214646981 1
-3.0005675554 124.8893357515 -9.9708355017 1.0187565651 1
-1.2227915525 124.8893357515 -10.0528958017 0.7031450936 1
0.5549844503 124.8893357515 -9.9702383819 0.633024326 1
2.3327604532 124.8893357515 -9.6728369168 0.7588920274 1
4.1105364561 124.8893357515 -10.0028709081 0.7284016865 1
5.888312459 124.8893357515 -9.9594816336 1.1079407765 1
7.6660884619 124.8893357515 -9.9391666725 1.275651255 1
9.4438644648 124.8893357515 -9.6983125968 1.0426657006 1
11.2216404676 124.8893357515 -9.8301314492 0.9785018117 1
12.9994164705 124.8893357515 0 -0 0
14.7771924734 124.8893357515 0 -0 0
16.5549684763 124.8893357515 0 -0 0
18.3327444792 124.8893357515 0 -0 0
20.1105204821 124.8893357515 0 -0 0
21.8882964849 124.8893357515 0 -0 0
23.6660724878 124.8893357515 0 -0 0
25.4438484907 124.8893357515 0 -0 0
27.2216244936 124.8893357515 0 -0 0
28.9994004965 124.8893357515 0 -0 0
30.7771764994 124.8893357515 0 -0 0
32.5549525023 124.8893357515 0 -0 0
34.3327285051 124.8893357515 0 -0 0
36.110504508 124.8893357515 -9.9555165862 0.6513760946 1
37.8882805109 124.8893357515 -9.4943625303 0.585057133 1
39.6660565138 124.8893357515 -8.671749084 0.4674460091 1
41.4438325167 124.8893357515 -8.4211134126 0.2494729346 1
43.2216085196 124.8893357515 -8.9404587274 -0.2892393957 1
44.9993845224 124.8893357515 -9.2621430648 -0.1465091453 1
46.7771605253 124.8893357515 -9.3174446647 -0.1552654706 1
48.5549365282 124.8893357515 -9.5618657079 -0.1891939043 1
50.3327125311 124.8893357515 -9.4529049456 0.2924268986 1
52.110488534 124.8893357515 0 -0 0
53.8882645369 124.8893357515 0 -0 0
-125.6671117544 123.1115597486 0 -0 0
-123.8893357515 123.1115597486 -10.3474090398 -0.1722039125 1
-122.1115597486 123.1115597486 -10.4723159082 -0.2984582383 1
-120.3337837458 123.1115597486 -10.3358117416 -0.4968294588 1
-118.5560077429 123.1115597486 -10.3603251566 -0.5419485192 1
-116.77823174 123.1115597486 -10.3133674827 -0.4085974889 1
-115.0004557371 123.1115597486 -10.161114818 -0.1894387664 1
-113.2226797342 123.1115597486 -10.2952348012 -0.0221349594 1
-111.4449037313 123.1115597486 -10.4554161287 -0.0746099058 1
-109.6671277285 123.1115597486 -10.5501290682 -0.2605991239 1
-107.8893517256 123.1115597486 -10.5389785359 -0.2808424879 1
-106.1115757227 123.1115597486 -10.3984420206 -0.2391028106 1
-104.3337997198 123.1115597486 -10.7068092975 -0.2545434412 1
-102.5560237169 123.1115597486 -10.7212847991 -0.3408394256 1
-100.778247714 123.1115597486 -10.590793357 -0.1398821178 1
-99.0004717112 123.1115597486 -10.6138204162 0.0291271321 1
-97.2226957083 123.1115597486 -10.867065086 -0.0204366762 1
-95.4449197054 123.1115597486 -11.0362819675 0.0344238856 1
-93.6671437025 123.1115597486 -10.9702250513 -0.0038003741 1
-91.8893676996 123.1115597486 -11.0174003803 0.1102366226 1
-90.1115916967 123.1115597486 -10.9309855448 0.2041190357 1
-88.3338156939 123.1115597486 -10.9182068944 0.1925475124 1
-86.556039691 123.1115597486 -10.7907798081 0.0085730367 1
-84.7782636881 123.1115597486 -10.8244590838 -0.115930024 1
-83.0004876852 123.1115597486 -11.2024932028 0.3109132698 1
-81.2227116823 123.1115597486 -11.0633471032 0.2399934785 1
-79.4449356794 123.1115597486 -10.9048898338 -0.0463977846 1
-77.6671596766 123.1115597486 -10.6976921228 0.126224255 1
-75.8893836737 123.1115597486 -10.5388697083 0.3211559509 1
-74.1116076708 123.1115597486 -10.7666243786 0.2095990777 1
-72.3338316679 123.1115597486 -11.0559396672 0.1142360366 1
-70.556055665 123.1115597486 -11.1704706839 0.2455035913 1
-68.7782796621 123.1115597486 0 -0 0
-67.0005036592 123.1115597486 0 -0 0
-65.2227276564 123.1115597486 0 -0 0
-63.4449516535 123.1115597486 0 -0 0
-61.6671756506 123.1115597486 0 -0 0
-59.8893996477 123.1115597486 -10.6881124309 0.3760165126 1
-58.1116236448 123.1115597486 -10.9170699324 0.2590254196 1
-56.3338476419 123.1115597486 -10.7062408165 0.7980427536 1
-54.5560716391 123.1115597486 -10.5411178572 0.7589965592 1
-52.7782956362 123.1115597486 -10.8158745916 0.7160411632 1
-51.0005196333 123.1115597486 -10.6508203655 0.8230444608 1
-49.2227436304 123.1115597486 -10.5491997378 0.5772129547 1
-47.4449676275 123.1115597486 -10.8428280358 0.5817292998 1
-45.6671916246 123.1115597486 -10.4307494959 0.8760621132 1
-43.8894156218 123.1115597486 -10.1048437934 0.9126310479 1
-42.1116396189 123.1115597486 -9.8739961284 0.8172594151 1
-40.333863616 123.1115597486 -9.995464904 0.7319586304 1
-38.5560876131 123.1115597486 -10.4276407498 0.7990465449 1
-36.7783116102 123.1115597486 -10.7709617309 1.1962729824 1
-35.0005356073 123.1115597486 -10.473653342 1.2955437932 1
-33.2227596045 123.1115597486 -10.0310787334 0.8294910637 1
-31.4449836016 123.1115597486 -10.2916506504 0.2881640073 1
-29.6672075987 123.1115597486 -10.6748956062 0.4848183294 1
-27.8894315958 123.1115597486 -10.5884120374 0.6135040927 1
-26.1116555929 123.1115597486 -10.4841294296 0.7257898243 1
-24.33387959 123.1115597486 -10.6299626983 0.9202289321 1
-22.5561035872 123.1115597486 -10.6649851357 1.3483767251 1
-20.7783275843 123.1115597486 -10.4612197896 1.3951296313 1
-19.0005515814 123.1115597486 -10.5353772017 0.9592063933 1
-17.2227755785 123.1115597486 -10.4395616669 0.775640021 1
-15.4449995756 123.1115597486 -10.3044923062 0.8315115338 1
-13.6672235727 123.1115597486 -9.9522259835 1.0362348491 1
-11.8894475698 123.1115597486 -9.8320230446 1.2615051 1
-10.111671567 123.1115597486 0 -0 0
-8.3338955641 123.1115597486 -10.6552865925 1.1755484859 1
-6.5561195612 123.1115597486 -9.8856492724 0.9355993975 1
-4.7783435583 123.1115597486 -9.654366297 0.6708104114 1
-3.0005675554 123.1115597486 -9.9552831797 0.9758670384 1
-1.2227915525 123.1115597486 -10.0184031829 0.5900044926 1
0.5549844503 123.1115597486 -9.9041342116 0.3293208841 1
2.3327604532 123.1115597486 -9.5768151824 0.6734752554 1
4.1105364561 123.1115597486 -9.716824743 1.0346625768 1
5.888312459 123.1115597486 -9.8747063716 1.1112972485 1
7.6660884619 123.1115597486 -9.9366693657 1.1192817571 1
9.4438644648 123.1115597486 -9.8069941305 0.8710846828 1
11.2216404676 123.1115597486 -9.8537914268 0.7613248969 1
12.9994164705 123.1115597486 0 -0 0
14.7771924734 123.1115597486 0 -0 0
16.5549684763 123.1115597486 0 -0 0
18.3327444792 123.1115597486 0 -0 0
20.1105204821 123.1115597486 0 -0 0
21.8882964849 123.1115597486 0 -0 0
23.6660724878 123.1115597486 0 -0 0
25.4438484907 123.1115597486 0 -0 0
27.2216244936 123.1115597486 0 -0 0
28.9994004965 123.1115597486 0 -0 0
30.7771764994 123.1115597486 0 -0 0
32.5549525023 123.1115597486 0 -0 0
34.3327285051 123.1115597486 0 -0 0
36.110504508 123.1115597486 -10.1572313913 0.8240110216 1
37.8882805109 123.1115597486 -9.7110182182 0.9489092984 1
39.6660565138 123.1115597486 -9.2219269739 0.9112563836 1
41.4438325167 123.1115597486 -8.9873820346 0.9355421198 1
43.2216085196 123.1115597486 -8.9023175203 0.3541149598 1
44.9993845224 123.1115597486 -9.3732660596 -0.0677623591 1
46.7771605253 123.1115597486 -9.6876174221 0.0770112725 1
48.5549365282 123.1115597486 -9.8517523414 0.123460607 1
50.3327125311 123.1115597486 -9.4161441307 0.5051103794 1
52.110488534 123.1115597486 0 -0 0
53.8882645369 123.1115597486 0 -0 0
-125.6671117544 121.3337837458 0 -0 0
-123.8893357515 121.3337837458 -10.4951439275 -0.2274510986 1
-122.1115597486 121.3337837458 -10.3801002756 -0.2329139573 1
-120.3337837458 121.3337837458 -10.3622339353 -0.3928074645 1
-118.5560077429 121.3337837458 -10.2354197202 -0.6114735989 1
-116.77823174 121.3337837458 -10.4303442563 -0.6155660892 1
-115.0004557371 121.3337837458 -10.4637242562 -0.363786296 1
-113.2226797342 121.3337837458 -10.3151015645 -0.1981993875 1
-111.4449037313 121.3337837458 -10.3267389571 -0.0685198565 1
-109.6671277285 121.3337837458 -10.1927349612 -0.0198653313 1
-107.8893517256 121.3337837458 -10.3363243768 -0.2457212465 1
-106.1115757227 121.3337837458 -10.4640593306 -0.196336431 1
-104.3337997198 121.3337837458 -10.6683616549 -0.319202782 1
-102.5560237169 121.3337837458 -10.9313721691 -0.5830839169 1
-100.778247714 121.3337837458 -10.9882703843 -0.2120906568 1
-99.0004717112 121.3337837458 -10.7356414496 -0.0455314596 1
-97.2226957083 121.3337837458 -10.9602530072 -0.1396000252 1
-95.4449197054 121.3337837458 -11.0827126867 -0.0291614988 1
-93.6671437025 121.3337837458 -10.9684895376 0.0113438445 1
-91.8893676996 121.3337837458 -10.9903796349 0.1266824765 1
-90.1115916967 121.3337837458 -10.8497715225 0.2225681764 1
-88.3338156939 121.3337837458 -10.8646608554 0.0999538472 1
-86.556039691 121.3337837458 -10.8370530137 0.0380782016 1
-84.7782636881 121.3337837458 -10.994622479 -0.0104402891 1
-83.0004876852 121.3337837458 -11.3842109379 0.1865476755 1
-81.2227116823 121.3337837458 -11.2032950903 0.1705314043 1
-79.4449356794 121.3337837458 -10.9940210634 0.0980035422 1
-77.6671596766 121.3337837458 -10.6771996009 0.2156962868 1
-75.8893836737 121.3337837458 -10.5568906983 0.1880769895 1
-74.1116076708 121.3337837458 -10.9380034925 0.1953111605 1
-72.3338316679 121.3337837458 -11.2462519182 0.2553782634 1
-70.556055665 121.3337837458 -10.9051604709 0.3992268605 1
-68.7782796621 121.3337837458 0 -0 0
-67.0005036592 121.3337837458 0 -0 0
-65.2227276564 121.3337837458 0 -0 0
-63.4449516535 121.3337837458 0 -0 0
-61.6671756506 121.3337837458 0 -0 0
-59.8893996477 121.3337837458 -11.0504954238 0.0666182375 1
-58.1116236448 121.3337837458 -11.0738532616 0.3415153022 1
-56.3338476419 121.3337837458 -11.0907644966 0.9042742344 1
-54.5560716391 121.3337837458 -10.7883498025 0.7530396805 1
-52.7782956362 121.3337837458 -10.569315659 0.5786935828 1
-51.0005196333 121.3337837458 -10.477826021 0.7894296224 1
-49.2227436304 121.3337837458 -10.7103290109 0.8676809567 1
-47.4449676275 121.3337837458 -11.0253247473 1.0252232151 1
-45.6671916246 121.3337837458 -11.0308892739 1.130095783 1
-43.8894156218 121.3337837458 -10.5021318044 1.1159868585 1
-42.1116396189 121.3337837458 -10.2865658244 1.0743660325 1
-40.333863616 121.3337837458 -10.2335453081 0.8522345984 1
-38.5560876131 121.3337837458 -10.2538244706 0.8861988306 1
-36.7783116102 121.3337837458 -10.6712656333 1.0660650647 1
-35.0005356073 121.3337837458 -10.3681535835 0.8519739849 1
-33.2227596045 121.3337837458 -10.3641942639 1.0539007175 1
-31.4449836016 121.3337837458 -10.8623439732 1.2233724846 1
-29.6672075987 121.3337837458 -11.0741267625 0.8528947237 1
-27.8894315958 121.3337837458 -10.8855099308 0.8961680108 1
-26.1116555929 121.3337837458 -10.2932716087 0.9016208459 1
-24.33387959 121.3337837458 -9.9274748661 0.9547888522 1
-22.5561035872 121.3337837458 -10.3189506246 1.0653390701 1
-20.7783275843 121.3337837458 -10.4190190271 1.4486126648 1
-19.0005515814 121.3337837458 -10.5038272237 1.306362115 1
-17.2227755785 121.3337837458 -10.287612574 0.7713370353 1
-15.4449995756 121.3337837458 -10.0960273265 0.8143640284 1
-13.6672235727 121.3337837458 -10.1595955276 1.0289949503 1
-11.8894475698 121.3337837458 -10.1779114977 1.5648204856 1
-10.111671567 121.3337837458 -10.0073485907 1.5802740036 1
-8.3338955641 121.3337837458 -9.865168206 0.937933463 1
-6.5561195612 121.3337837458 -9.5110432226 0.7532301288 1
-4.7783435583 121.3337837458 -9.7317813771 0.7469410395 1
-3.0005675554 121.3337837458 -10.2079736879 1.3411797846 1
-1.2227915525 121.3337837458 -9.5930591324 0.897346499 1
0.5549844503 121.3337837458 -9.64189981 0.6277290045 1
2.3327604532 121.3337837458 -9.5361208228 0.8186040087 1
4.1105364561 121.3337837458 -9.6023653234 1.0964637614 1
5.888312459 121.3337837458 -9.9065613533 0.9870963275 1
7.6660884619 121.3337837458 -10.0723544615 0.5770597369 1
9.4438644648 121.3337837458 -10.0406168991 0.7628613706 1
11.2216404676 121.3337837458 -9.9690240951 0.6624278229 1
12.9994164705 121.3337837458 0 -0 0
14.7771924734 121.3337837458 0 -0 0
16.5549684763 121.3337837458 0 -0 0
18.3327444792 121.3337837458 0 -0 0
20.1105204821 121.3337837458 0 -0 0
21.8882964849 121.3337837458 0 -0 0
23.6660724878 121.3337837458 0 -0 0
25.4438484907 121.3337837458 0 -0 0
27.2216244936 121.3337837458 0 -0 0
28.9994004965 121.3337837458 0 -0 0
30.7771764994 121.3337837458 0 -0 0
32.5549525023 121.3337837458 0 -0 0
34.3327285051 121.3337837458 0 -0 0
36.110504508 121.3337837458 -9.9639349732 0.5396516842 1
37.8882805109 121.3337837458 -9.6969622755 0.8907724533 1
39.6660565138 121.3337837458 -9.6244816675 0.9585204931 1
41.4438325167 121.3337837458 -9.789946861 0.7797153279 1
43.2216085196 121.3337837458 -9.3618763929 0.4976943518 1
44.9993845224 121.3337837458 -9.3322981991 0.3664439804 1
46.7771605253 121.3337837458 -9.6047409152 0.8682680529 1
48.5549365282 121.3337837458 -9.8072389925 0.7553365155 1
50.3327125311 121.3337837458 -9.6081603927 0.6345135457 1
52.110488534 121.3337837458 0 -0 0
53.8882645369 121.3337837458 0 -0 0
-125.6671117544 119.5560077429 0 -0 0
-123.8893357515 119.5560077429 -10.3387815893 -0.202901885 1
-122.1115597486 119.5560077429 -10.3837989817 -0.2494428638 1
-120.3337837458 119.5560077429 -10.505178977 -0.3625319149 1
-118.5560077429 119.5560077429 -10.2573384563 -0.4348106191 1
-116.77823174 119.5560077429 -10.637006421 -0.3954207586 1
-115.0004557371 119.5560077429 -10.6794592054 -0.4588056711 1
-113.2226797342 119.5560077429 -10.450892624 -0.415752903 1
-111.4449037313 119.5560077429 -10.3817556005 -0.1967960843 1
-109.6671277285 119.5560077429 -10.0988167496 -0.0829953581 1
-107.8893517256 119.5560077429 -10.2946047467 -0.2304452893 1
-106.1115757227 119.5560077429 -10.7784278764 -0.2959022218 1
-104.3337997198 119.5560077429 -10.7438192703 -0.211789949 1
-102.5560237169 119.5560077429 -11.0373129657 -0.3882209543 1
-100.778247714 119.5560077429 -10.9898755913 -0.3598756625 1
-99.0004717112 119.5560077429 -10.7701584114 -0.1699013498 1
-97.2226957083 119.5560077429 -11.0985370777 -0.195643371 1
-95.4449197054 119.5560077429 -10.8504431033 -0.2723453441 1
-93.6671437025 119.5560077429 -10.6556646252 -0.1548659588 1
-91.8893676996 119.5560077429 -10.79517587 0.1032945678 1
-90.1115916967 119.5560077429 -10.8404510121 0.1961445507 1
-88.3338156939 119.5560077429 -10.8789587962 0.063150074 1
-86.556039691 119.5560077429 -10.8951898587 0.1865820421 1
-84.7782636881 119.5560077429 -10.8187943213 0.1705185168 1
-83.0004876852 119.5560077429 -10.8703843275 -0.0640221266 1
-81.2227116823 119.5560077429 -11.0530858068 0.2132634173 1
-79.4449356794 119.5560077429 -11.0568990684 0.4681032705 1
-77.6671596766 119.5560077429 -10.8722157814 0.4006401872 1
-75.8893836737 119.5560077429 -10.8240738914 0.2390670121 1
-74.1116076708 119.5560077429 -11.047230596 0.0655013227 1
-72.3338316679 119.5560077429 -11.1883957338 0.0837771984 1
-70.556055665 119.5560077429 -11.0562289195 0.3404155707 1
-68.7782796621 119.5560077429 0 -0 0
-67.0005036592 119.5560077429 0 -0 0
-65.2227276564 119.5560077429 0 -0 0
-63.4449516535 119.5560077429 0 -0 0
-61.6671756506 119.5560077429 0 -0 0
-59.8893996477 119.5560077429 -10.8499061251 0.3587429963 1
-58.1116236448 119.5560077429 -10.9203791504 0.6622445344 1
-56.3338476419 119.5560077429 -11.1396467005 0.8235542322 1
-54.5560716391 119.5560077429 -10.846055633 0.5611666127 1
-52.7782956362 119.5560077429 -10.4701321966 0.4218114496 1
-51.0005196333 119.5560077429 -10.7137900147 0.8244420362 1
-49.2227436304 119.5560077429 -10.7970130516 1.0776294283 1
-47.4449676275 119.5560077429 -11.0201597326 1.1993144272 1
-45.6671916246 119.5560077429 -11.1267620864 0.8738125323 1
-43.8894156218 119.5560077429 -10.6544517704 0.95118895 1
-42.1116396189 119.5560077429 -10.7966951605 1.4732406352 1
-40.333863616 119.5560077429 -10.4917903193 1.2958072705 1
-38.5560876131 119.5560077429 -10.1431482418 1.0877647137 1
-36.7783116102 119.5560077429 -10.5375465939 0.9197220247 1
-35.0005356073 119.5560077429 -10.5133711171 0.7699766904 1
-33.2227596045 119.5560077429 -10.6336384934 1.016979525 1
-31.4449836016 119.5560077429 -10.9870131392 1.4391489602 1
-29.6672075987 119.5560077429 -10.9161348743 1.3117562405 1
-27.8894315958 119.5560077429 -10.897430848 1.25617398 1
-26.1116555929 119.5560077429 -10.5647678112 1.293819735 1
-24.33387959 119.5560077429 -10.3618143763 1.1529467134 1
-22.5561035872 119.5560077429 -10.351130657 1.1580945449 1
-20.7783275843 119.5560077429 -10.350291539 1.2148194951 1
-19.0005515814 119.5560077429 -10.4688033544 0.9378074521 1
-17.2227755785 119.5560077429 -9.9177935063 0.7162645462 1
-15.4449995756 119.5560077429 -9.7480883326 0.9493532004 1
-13.6672235727 119.5560077429 -10.2649563877 1.3569225549 1
-11.8894475698 119.5560077429 -10.3727945075 1.3397521384 1
-10.111671567 119.5560077429 -9.7647317944 1.1308260734 1
-8.3338955641 119.5560077429 -9.6751079768 1.0066036733 1
-6.5561195612 119.5560077429 -9.7224508431 0.8857649522 1
-4.7783435583 119.5560077429 -9.9907609746 1.0071621307 1
-3.0005675554 119.5560077429 -10.6590526 1.532643317 1
-1.2227915525 119.5560077429 -9.6966357928 0.9372089003 1
0.5549844503 119.5560077429 -9.5508855767 0.6721678924 1
2.3327604532 119.5560077429 -9.6602544425 0.5857888554 1
4.1105364561 119.5560077429 -9.5847123425 0.7441917109 1
5.888312459 119.5560077429 -9.9399155782 0.9914594548 1
7.6660884619 119.5560077429 -9.7151636903 0.9786092073 1
9.4438644648 119.5560077429 -9.4124855189 0.8489024694 1
11.2216404676 119.5560077429 -9.6725304812 0.9684610344 1
12.9994164705 119.5560077429 0 -0 0
14.7771924734 119.5560077429 0 -0 0
16.5549684763 119.5560077429 0 -0 0
18.3327444792 119.5560077429 0 -0 0
20.1105204821 119.5560077429 0 -0 0
21.8882964849 119.5560077429 0 -0 0
23.6660724878 119.5560077429 0 -0 0
25.4438484907 119.5560077429 0 -0 0
27.2216244936 119.5560077429 0 -0 0
28.9994004965 119.5560077429 0 -0 0
30.7771764994 119.5560077429 0 -0 0
32.5549525023 119.5560077429 0 -0 0
34.3327285051 119.5560077429 0 -0 0
36.110504508 119.5560077429 -9.8444694844 0.5524102874 1
37.8882805109 119.5560077429 -10.2012020342 0.4849515 1
39.6660565138 119.5560077429 -10.2927632693 0.3647056028 1
41.4438325167 119.5560077429 -9.7027158185 0.5476662636 1
43.2216085196 119.5560077429 -9.3447532305 0.1364411612 1
44.9993845224 119.5560077429 -9.0686848373 0.6411534607 1
46.7771605253 119.5560077429 -8.6257651307 1.1208182308 1
48.5549365282 119.5560077429 -9.358517057 0.9231529577 1
50.3327125311 119.5560077429 -9.8645324238 0.919564511 1
52.110488534 119.5560077429 0 -0 0
53.8882645369 119.5560077429 0 -0 0
-125.6671117544 117.77823174 0 -0 0
-123.8893357515 117.77823174 -10.0663832633 -0.244844898 1
-122.1115597486 117.77823174 -10.1342472904 -0.3496072064 1
-120.3337837458 117.77823174 -10.5004277934 -0.4342364103 1
-118.5560077429 117.77823174 -10.5860393096 -0.2843049236 1
-116.77823174 117.77823174 -10.496637443 -0.1167104324 1
-115.0004557371 117.77823174 -10.5079240098 -0.2551348332 1
-113.2226797342 117.77823174 -10.6864041241 -0.4429626648 1
-111.4449037313 117.77823174 -10.564130597 -0.4048114342 1
-109.6671277285 117.77823174 -10.3362227089 -0.3560910398 1
-107.8893517256 117.77823174 -10.5883361445 -0.3618474466 1
-106.1115757227 117.77823174 -10.7604011586 -0.393215568 1
-104.3337997198 117.77823174 -10.6727935154 -0.2305326378 1
-102.5560237169 117.77823174 -10.8450289306 -0.2201066681 1
-100.778247714 117.77823174 -10.8917202633 -0.3225392069 1
-99.0004717112 117.77823174 -10.9248210345 -0.2197429548 1
-97.2226957083 117.77823174 -11.1417774302 -0.2411232808 1
-95.4449197054 117.77823174 -11.0081901294 -0.5254310683 1
-93.6671437025 117.77823174 -10.8495796423 -0.2453260305 1
-91.8893676996 117.77823174 -10.9050043892 0.097092827 1
-90.1115916967 117.77823174 -11.0869870336 0.0273472282 1
-88.3338156939 117.77823174 -11.1181217484 -0.0051965175 1
-86.556039691 117.77823174 -11.1436002923 0.1694731991 1
-84.7782636881 117.77823174 -10.8542549329 0.2949027263 1
-83.0004876852 117.77823174 -10.767725542 0.2238569242 1
-81.2227116823 117.77823174 -11.0268941558 0.1717771938 1
-79.4449356794 117.77823174 -11.1623100465 0.3193688873 1
-77.6671596766 117.77823174 -11.3134443644 0.362405904 1
-75.8893836737 117.77823174 -11.0795824615 0.4908811718 1
-74.1116076708 117.77823174 -10.8461100468 0.3229100798 1
-72.3338316679 117.77823174 -10.9547113917 0.081441701 1
-70.556055665 117.77823174 -11.1229674401 0.4630814499 1
-68.7782796621 117.77823174 0 -0 0
-67.0005036592 117.77823174 0 -0 0
-65.2227276564 117.77823174 0 -0 0
-63.4449516535 117.77823174 0 -0 0
-61.6671756506 117.77823174 0 -0 0
-59.8893996477 117.77823174 -10.8319237975 0.678051742 1
-58.1116236448 117.77823174 -10.9766201042 0.847479119 1
-56.3338476419 117.77823174 -10.9822519321 0.8650189765 1
-54.5560716391 117.77823174 -10.641499855 0.6397616131 1
-52.7782956362 117.77823174 -10.3865912686 0.3902457203 1
-51.0005196333 117.77823174 -10.5164569521 0.5336532792 1
-49.2227436304 117.77823174 -10.6998829941 0.7436318216 1
-47.4449676275 117.77823174 -10.7035616531 0.8096429157 1
-45.6671916246 117.77823174 -10.8221264503 0.6701331028 1
-43.8894156218 117.77823174 -10.6637092754 0.9079414379 1
-42.1116396189 117.77823174 -10.6387075681 1.3809204708 1
-40.333863616 117.77823174 -10.6802439096 1.5300185673 1
-38.5560876131 117.77823174 -10.3407562373 1.4035322669 1
-36.7783116102 117.77823174 -10.5125234075 1.0412767168 1
-35.0005356073 117.77823174 -10.7163231201 0.7272962273 1
-33.2227596045 117.77823174 -10.7629414237 0.606928615 1
-31.4449836016 117.77823174 -10.7383120214 0.7599072743 1
-29.6672075987 117.77823174 -10.4359760842 1.379656066 1
-27.8894315958 117.77823174 -10.5213083716 1.482329171 1
-26.1116555929 117.77823174 -10.5885180011 1.1555041618 1
-24.33387959 117.77823174 -10.9440964057 0.9786707808 1
-22.5561035872 117.77823174 -10.8093979179 1.0669700521 1
-20.7783275843 117.77823174 -10.5173690992 0.8085575036 1
-19.0005515814 117.77823174 -9.9879558002 0.6223792692 1
-17.2227755785 117.77823174 -9.672782503 0.7597340093 1
-15.4449995756 117.77823174 -9.9772520338 1.0747712721 1
-13.6672235727 117.77823174 -10.2423216806 1.6790092681 1
-11.8894475698 117.77823174 -10.2007910669 1.5031539035 1
-10.111671567 117.77823174 -10.0062431315 0.8732469152 1
-8.3338955641 117.77823174 -10.2146350821 1.1189939367 1
-6.5561195612 117.77823174 -10.4461829667 1.3881918723 1
-4.7783435583 117.77823174 -10.1438255504 1.1592000041 1