TITLE = "B00014"
VARIABLES = "x", "y", "Vx", "Vy", "isValid"
ZONE T="Frame 0", I=102, J=78, F=POINT
-125.6671117544 126.6671117544 0 -0 0
-123.8893357515 126.6671117544 0 -0 0
-122.1115597486 126.6671117544 0 -0 0
-120.3337837458 126.6671117544 0 -0 0
-118.5560077429 126.6671117544 0 -0 0
-116.77823174 126.6671117544 0 -0 0
-115.0004557371 126.6671117544 0 -0 0
-113.2226797342 126.6671117544 0 -0 0
-111.4449037313 126.6671117544 0 -0 0
-109.6671277285 126.6671117544 0 -0 0
-107.8893517256 126.6671117544 0 -0 0
-106.1115757227 126.6671117544 0 -0 0
-104.3337997198 126.6671117544 0 -0 0
-102.5560237169 126.6671117544 0 -0 0
-100.778247714 126.6671117544 0 -0 0
-99.0004717112 126.6671117544 0 -0 0
-97.2226957083 126.6671117544 0 -0 0
-95.4449197054 126.6671117544 0 -0 0
-93.6671437025 126.6671117544 0 -0 0
-91.8893676996 126.6671117544 0 -0 0
-90.1115916967 126.6671117544 0 -0 0
-88.3338156939 126.6671117544 0 -0 0
-86.556039691 126.6671117544 0 -0 0
-84.7782636881 126.6671117544 0 -0 0
-83.0004876852 126.6671117544 0 -0 0
-81.2227116823 126.6671117544 0 -0 0
-79.4449356794 126.6671117544 0 -0 0
-77.6671596766 126.6671117544 0 -0 0
-75.8893836737 126.6671117544 0 -0 0
-74.1116076708 126.6671117544 0 -0 0
-72.3338316679 126.6671117544 0 -0 0
-70.556055665 126.6671117544 0 -0 0
-68.7782796621 126.6671117544 0 -0 0
-67.0005036592 126.6671117544 0 -0 0
-65.2227276564 126.6671117544 0 -0 0
-63.4449516535 126.6671117544 0 -0 0
-61.6671756506 126.6671117544 0 -0 0
-59.8893996477 126.6671117544 0 -0 0
-58.1116236448 126.6671117544 0 -0 0
-56.3338476419 126.6671117544 0 -0 0
-54.5560716391 126.6671117544 0 -0 0
-52.7782956362 126.6671117544 0 -0 0
-51.0005196333 126.6671117544 0 -0 0
-49.2227436304 126.6671117544 0 -0 0
-47.4449676275 126.6671117544 0 -0 0
-45.6671916246 126.6671117544 0 -0 0
-43.8894156218 126.6671117544 0 -0 0
-42.1116396189 126.6671117544 0 -0 0
-40.333863616 126.6671117544 0 -0 0
-38.5560876131 126.6671117544 0 -0 0
-36.7783116102 126.6671117544 0 -0 0
-35.0005356073 126.6671117544 0 -0 0
-33.2227596045 126.6671117544 0 -0 0
-31.4449836016 126.6671117544 0 -0 0
-29.6672075987 126.6671117544 0 -0 0
-27.8894315958 126.6671117544 0 -0 0
-26.1116555929 126.6671117544 0 -0 0
-24.33387959 126.6671117544 0 -0 0
-22.5561035872 126.6671117544 0 -0 0
-20.7783275843 126.6671117544 0 -0 0
-19.0005515814 126.6671117544 0 -0 0
-17.2227755785 126.6671117544 0 -0 0
-15.4449995756 126.6671117544 0 -0 0
-13.6672235727 126.6671117544 0 -0 0
-11.8894475698 126.6671117544 0 -0 0
-10.111671567 126.6671117544 0 -0 0
-8.3338955641 126.6671117544 0 -0 0
-6.5561195612 126.6671117544 0 -0 0
-4.7783435583 126.6671117544 0 -0 0
-3.0005675554 126.6671117544 0 -0 0
-1.2227915525 126.6671117544 0 -0 0
0.5549844503 126.6671117544 0 -0 0
2.3327604532 126.6671117544 0 -0 0
4.1105364561 126.6671117544 0 -0 0
5.888312459 126.6671117544 0 -0 0
7.6660884619 126.6671117544 0 -0 0
9.4438644648 126.6671117544 0 -0 0
11.2216404676 126.6671117544 0 -0 0
12.9994164705 126.6671117544 0 -0 0
14.7771924734 126.6671117544 0 -0 0
16.5549684763 126.6671117544 0 -0 0
18.3327444792 126.6671117544 0 -0 0
20.1105204821 126.6671117544 0 -0 0
21.8882964849 126.6671117544 0 -0 0
23.6660724878 126.6671117544 0 -0 0
25.4438484907 126.6671117544 0 -0 0
27.2216244936 126.6671117544 0 -0 0
28.9994004965 126.6671117544 0 -0 0
30.7771764994 126.6671117544 0 -0 0
32.5549525023 126.6671117544 0 -0 0
34.3327285051 126.6671117544 0 -0 0
36.110504508 126.6671117544 0 -0 0
37.8882805109 126.6671117544 0 -0 0
39.6660565138 126.6671117544 0 -0 0
41.4438325167 126.6671117544 0 -0 0
43.2216085196 126.6671117544 0 -0 0
44.9993845224 126.6671117544 0 -0 0
46.7771605253 126.6671117544 0 -0 0
48.5549365282 126.6671117544 0 -0 0
50.3327125311 126.6671117544 0 -0 0
52.110488534 126.6671117544 0 -0 0
53.8882645369 126.6671117544 0 -0 0
-125.6671117544 124.8893357515 0 -0 0
-123.8893357515 124.8893357515 -11.0299556478 -0.1963278393 1
-122.1115597486 124.8893357515 -10.6782649658 -0.2972138807 1
-120.3337837458 124.8893357515 -10.3950912763 -0.210309321 1
-118.5560077429 124.8893357515 -10.3181172343 -0.176018606 1
-116.77823174 124.8893357515 -10.3101298619 -0.2295231187 1
-115.0004557371 124.8893357515 -10.5159887071 -0.1323171682 1
-113.2226797342 124.8893357515 -10.6294357437 0.0622021284 1
-111.4449037313 124.8893357515 -10.6021443612 -0.0441367481 1
-109.6671277285 124.8893357515 -10.8788327853 -0.2615284542 1
-107.8893517256 124.8893357515 -11.0345822523 -0.1898483018 1
-106.1115757227 124.8893357515 -10.9587222612 -0.0566504892 1
-104.3337997198 124.8893357515 -10.8390591644 -0.0086360422 1
-102.5560237169 124.8893357515 -10.9044745706 0.0886887595 1
-100.778247714 124.8893357515 -10.8383317379 0.0338682921 1
-99.0004717112 124.8893357515 -10.5316054665 0.0074246192 1
-97.2226957083 124.8893357515 -10.5286528021 -0.1456227732 1
-95.4449197054 124.8893357515 -10.5660866298 -0.2918913523 1
-93.6671437025 124.8893357515 -10.5036367754 0.0479829443 1
-91.8893676996 124.8893357515 -10.6309679216 -0.0410867117 1
-90.1115916967 124.8893357515 -10.9119965619 -0.1074228566 1
-88.3338156939 124.8893357515 -10.84687184 0.0854855052 1
-86.556039691 124.8893357515 -10.5110656905 0.0213430955 1
-84.7782636881 124.8893357515 -10.6374617786 0.0482005995 1
-83.0004876852 124.8893357515 -10.6274095458 0.2252745468 1
-81.2227116823 124.8893357515 -10.8671767775 0.2161774193 1
-79.4449356794 124.8893357515 -10.8539255862 0.219639855 1
-77.6671596766 124.8893357515 -10.7887464505 0.3356371803 1
-75.8893836737 124.8893357515 -10.8293090714 0.2633656358 1
-74.1116076708 124.8893357515 -10.5980303918 0.1148975938 1
-72.3338316679 124.8893357515 -10.6852528427 0.058852816 1
-70.556055665 124.8893357515 -10.8875719273 0.1772142776 1
-68.7782796621 124.8893357515 0 -0 0
-67.0005036592 124.8893357515 0 -0 0
-65.2227276564 124.8893357515 0 -0 0
-63.4449516535 124.8893357515 0 -0 0
-61.6671756506 124.8893357515 0 -0 0
-59.8893996477 124.8893357515 0 -0 0
-58.1116236448 124.8893357515 -10.5855137868 0.6150377026 1
-56.3338476419 124.8893357515 -10.6442677989 0.5819856174 1
-54.5560716391 124.8893357515 -10.9342446447 0.3809495528 1
-52.7782956362 124.8893357515 -11.0871416833 0.5559973021 1
-51.0005196333 124.8893357515 -10.1164210445 0.9187640555 1
-49.2227436304 124.8893357515 -10.4288278297 0.8857592244 1
-47.4449676275 124.8893357515 -10.5711284975 1.0596342132 1
-45.6671916246 124.8893357515 -10.6533276959 1.0079711779 1
-43.8894156218 124.8893357515 -11.0085939371 0.5192880371 1
-42.1116396189 124.8893357515 -10.8024773423 0.4878297034 1
-40.333863616 124.8893357515 -10.7872873016 0.8574869616 1
-38.5560876131 124.8893357515 -10.4803720138 1.2437117888 1
-36.7783116102 124.8893357515 -9.8551259968 1.5751462193 1
-35.0005356073 124.8893357515 -10.1318989055 1.5443136442 1
-33.2227596045 124.8893357515 -10.7304936181 1.1933661401 1
-31.4449836016 124.8893357515 -10.8501681704 0.9424841746 1
-29.6672075987 124.8893357515 -10.3059614787 0.959879406 1
-27.8894315958 124.8893357515 -10.2875109061 0.4642542104 1
-26.1116555929 124.8893357515 -10.3520470999 0.5213228267 1
-24.33387959 124.8893357515 -10.4062661517 0.9063534142 1
-22.5561035872 124.8893357515 -10.2958290571 1.0803372306 1
-20.7783275843 124.8893357515 -10.2675310194 1.1944816229 1
-19.0005515814 124.8893357515 -10.0478310228 1.4931789956 1
-17.2227755785 124.8893357515 -10.4175942448 1.4304055223 1
-15.4449995756 124.8893357515 -10.2716034625 1.0743388256 1
-13.6672235727 124.8893357515 -10.5630337294 0.8782200498 1
-11.8894475698 124.8893357515 -10.5375738008 0.956103375 1
-10.111671567 124.8893357515 -10.3497932232 0.9479370098 1
-8.3338955641 124.8893357515 -10.0625771615 0.8250033575 1
-6.5561195612 124.8893357515 -9.7203816869 0.9957137545 1
-4.7783435583 124.8893357515 -9.7844725468 1.1036105839 1
-3.0005675554 124.8893357515 -10.0162395185 0.9788726846 1
-1.2227915525 124.8893357515 -9.5612829075 0.9290640143 1
0.5549844503 124.8893357515 -9.4701942133 1.1339949611 1
2.3327604532 124.8893357515 -9.8361141029 1.0854650149 1
4.1105364561 124.8893357515 -10.2151849478 0.8712550839 1
5.888312459 124.8893357515 -10.119913551 0.8081665835 1
7.6660884619 124.8893357515 -10.1558481354 0.4620633391 1
9.4438644648 124.8893357515 -10.3424402011 0.3217058166 1
11.2216404676 124.8893357515 -10.2721032102 0.1498269549 1
12.9994164705 124.8893357515 0 -0 0
14.7771924734 124.8893357515 0 -0 0
16.5549684763 124.8893357515 0 -0 0
18.3327444792 124.8893357515 0 -0 0
20.1105204821 124.8893357515 0 -0 0
21.8882964849 124.8893357515 0 -0 0
23.6660724878 124.8893357515 0 -0 0
25.4438484907 124.8893357515 0 -0 0
27.2216244936 124.8893357515 0 -0 0
28.9994004965 124.8893357515 0 -0 0
30.7771764994 124.8893357515 0 -0 0
32.5549525023 124.8893357515 0 -0 0
34.3327285051 124.8893357515 0 -0 0
36.110504508 124.8893357515 -9.1638660218 0.5895276559 1
37.8882805109 124.8893357515 -8.8844511801 0.4243803536 1
39.6660565138 124.8893357515 -9.0941547896 0.2577681745 1
41.4438325167 124.8893357515 -8.5211202416 0.2003644838 1
43.2216085196 124.8893357515 -9.3055122921 0.667315041 1
44.9993845224 124.8893357515 -9.8962886014 0.8856031427 1
46.7771605253 124.8893357515 -9.8232280569 0.7536897822 1
48.5549365282 124.8893357515 -9.5862001302 0.5202001842 1
50.3327125311 124.8893357515 -9.4247042799 0.6626898683 1
52.110488534 124.8893357515 0 -0 0
53.8882645369 124.8893357515 0 -0 0
-125.6671117544 123.1115597486 0 -0 0
-123.8893357515 123.1115597486 -10.7368242337 0.0092761203 1
-122.1115597486 123.1115597486 -10.5244500524 -0.162588422 1
-120.3337837458 123.1115597486 -10.3190923868 -0.1970638575 1
-118.5560077429 123.1115597486 -10.357870808 -0.2624735359 1
-116.77823174 123.1115597486 -10.3841941977 -0.3281509875 1
-115.0004557371 123.1115597486 -10.5203418108 -0.1429249945 1
-113.2226797342 123.1115597486 -10.5546783479 0.0202490918 1
-111.4449037313 123.1115597486 -10.5916697055 -0.0913536035 1
-109.6671277285 123.1115597486 -10.6028517405 -0.2822543827 1
-107.8893517256 123.1115597486 -10.6596354004 -0.3046671388 1
-106.1115757227 123.1115597486 -10.6894484327 -0.002813766 1
-104.3337997198 123.1115597486 -10.8154493048 0.2223032671 1
-102.5560237169 123.1115597486 -10.9297268677 0.2852371179 1
-100.778247714 123.1115597486 -10.9387423746 0.2779871955 1
-99.0004717112 123.1115597486 -10.5671820654 0.1132465647 1
-97.2226957083 123.1115597486 -10.4639834377 -0.1153243125 1
-95.4449197054 123.1115597486 -10.6000322467 -0.1701977618 1
-93.6671437025 123.1115597486 -10.5782352257 0.040684336 1
-91.8893676996 123.1115597486 -10.7260717812 -0.0415592526 1
-90.1115916967 123.1115597486 -10.8970871819 -0.0432847427 1
-88.3338156939 123.1115597486 -10.858967454 0.042610298 1
-86.556039691 123.1115597486 -10.6464715576 -0.025230818 1
-84.7782636881 123.1115597486 -10.6429905066 0.0979949505 1
-83.0004876852 123.1115597486 -10.7298019901 0.1104829167 1
-81.2227116823 123.1115597486 -10.817369539 0.0098675123 1
-79.4449356794 123.1115597486 -10.7473103449 0.1117544811 1
-77.6671596766 123.1115597486 -10.8235884631 0.252524403 1
-75.8893836737 123.1115597486 -10.9026545724 0.1186550096 1
-74.1116076708 123.1115597486 -10.9210979853 0.1314608669 1
-72.3338316679 123.1115597486 -10.6281570195 0.1917656721 1
-70.556055665 123.1115597486 -10.5113420553 0.3220093883 1
-68.7782796621 123.1115597486 0 -0 0
-67.0005036592 123.1115597486 0 -0 0
-65.2227276564 123.1115597486 0 -0 0
-63.4449516535 123.1115597486 0 -0 0
-61.6671756506 123.1115597486 0 -0 0
-59.8893996477 123.1115597486 -11.1399588638 1.1933575485 1
-58.1116236448 123.1115597486 -10.7884027844 0.7142956259 1
-56.3338476419 123.1115597486 -10.6105298135 0.4016038842 1
-54.5560716391 123.1115597486 -10.6823989823 0.4316503231 1
-52.7782956362 123.1115597486 -11.0204833515 1.0136932182 1
-51.0005196333 123.1115597486 -10.7090846533 0.9446922292 1
-49.2227436304 123.1115597486 -10.606815356 0.5682633173 1
-47.4449676275 123.1115597486 -10.8482493682 0.7013766452 1
-45.6671916246 123.1115597486 -10.7407320034 0.7815052554 1
-43.8894156218 123.1115597486 -10.7150658751 0.5861869352 1
-42.1116396189 123.1115597486 -10.8500593428 0.6465304029 1
-40.333863616 123.1115597486 -11.0582952118 0.8818457269 1
-38.5560876131 123.1115597486 -10.8060400139 1.1915389821 1
-36.7783116102 123.1115597486 -10.1437625449 1.4702765153 1
-35.0005356073 123.1115597486 -10.0373492074 1.5961642639 1
-33.2227596045 123.1115597486 -10.4285514649 1.6301585669 1
-31.4449836016 123.1115597486 -10.3920970856 1.4539223057 1
-29.6672075987 123.1115597486 -10.2030907657 1.4258648343 1
-27.8894315958 123.1115597486 -10.2957374129 0.9367077206 1
-26.1116555929 123.1115597486 -10.4206872395 0.9011726481 1
-24.33387959 123.1115597486 -10.1913044511 1.1090548273 1
-22.5561035872 123.1115597486 -9.7995408724 1.0565140116 1
-20.7783275843 123.1115597486 -10.3086349144 0.8114815292 1
-19.0005515814 123.1115597486 -10.2076285899 0.8810180645 1
-17.2227755785 123.1115597486 -10.4166949852 1.0526907265 1
-15.4449995756 123.1115597486 -10.439634696 0.7456666112 1
-13.6672235727 123.1115597486 -10.4210337695 0.4167724457 1
-11.8894475698 123.1115597486 -10.6283259886 0.8052740606 1
-10.111671567 123.1115597486 -10.3005601935 0.9241152227 1
-8.3338955641 123.1115597486 -10.0214732665 0.8322905103 1
-6.5561195612 123.1115597486 -10.3383949649 0.9229195511 1
-4.7783435583 123.1115597486 -10.512978765 1.0256570935 1
-3.0005675554 123.1115597486 -10.1976007001 0.9752498714 1
-1.2227915525 123.1115597486 -9.9629913235 0.9829551513 1
0.5549844503 123.1115597486 -9.6765642618 1.1030807653 1
2.3327604532 123.1115597486 -9.7666505967 1.0179074235 1
4.1105364561 123.1115597486 -9.8487824937 0.905247955 1
5.888312459 123.1115597486 -9.9585923976 0.7692449681 1
7.6660884619 123.1115597486 -10.1484836577 0.5634849268 1
9.4438644648 123.1115597486 -10.1185217034 0.2963260767 1
11.2216404676 123.1115597486 -10.176793151 0.6128453994 1
12.9994164705 123.1115597486 0 -0 0
14.7771924734 123.1115597486 0 -0 0
16.5549684763 123.1115597486 0 -0 0
18.3327444792 123.1115597486 0 -0 0
20.1105204821 123.1115597486 0 -0 0
21.8882964849 123.1115597486 0 -0 0
23.6660724878 123.1115597486 0 -0 0
25.4438484907 123.1115597486 0 -0 0
27.2216244936 123.1115597486 0 -0 0
28.9994004965 123.1115597486 0 -0 0
30.7771764994 123.1115597486 0 -0 0
32.5549525023 123.1115597486 0 -0 0
34.3327285051 123.1115597486 0 -0 0
36.110504508 123.1115597486 -9.5304159659 0.5440090837 1
37.8882805109 123.1115597486 -9.0192298566 0.4425158989 1
39.6660565138 123.1115597486 -9.5986007479 0.627518509 1
41.4438325167 123.1115597486 -10.048764649 0.7684087139 1
43.2216085196 123.1115597486 -9.7246818087 0.5348790216 1
44.9993845224 123.1115597486 -9.590007664 0.6420126259 1
46.7771605253 123.1115597486 -9.5731938011 0.6782178473 1
48.5549365282 123.1115597486 -9.8322564512 0.3235773648 1
50.3327125311 123.1115597486 -9.7643652172 0.6605032929 1
52.110488534 123.1115597486 -9.5170029652 1.3113037468 1
53.8882645369 123.1115597486 0 -0 0
-125.6671117544 121.3337837458 0 -0 0
-123.8893357515 121.3337837458 -10.4296397409 0.0260613443 1
-122.1115597486 121.3337837458 -10.4429639611 -0.0639748726 1
-120.3337837458 121.3337837458 -10.1388853505 -0.1681586764 1
-118.5560077429 121.3337837458 -10.1835977393 -0.3396351623 1
-116.77823174 121.3337837458 -10.5545065149 -0.3736896069 1
-115.0004557371 121.3337837458 -10.6424835992 -0.2075127382 1
-113.2226797342 121.3337837458 -10.5637325171 -0.1509538933 1
-111.4449037313 121.3337837458 -10.4791992533 -0.1687615239 1
-109.6671277285 121.3337837458 -10.4518906875 -0.2450783046 1
-107.8893517256 121.3337837458 -10.5674827732 -0.2174103213 1
-106.1115757227 121.3337837458 -10.6067265756 0.0172506052 1
-104.3337997198 121.3337837458 -10.7200719443 0.0753129893 1
-102.5560237169 121.3337837458 -10.7608493565 0.063174417 1
-100.778247714 121.3337837458 -10.9935427947 0.2109780379 1
-99.0004717112 121.3337837458 -10.7751229543 0.1288618922 1
-97.2226957083 121.3337837458 -10.4880171522 -0.0750423522 1
-95.4449197054 121.3337837458 -10.4404337196 -0.0221650302 1
-93.6671437025 121.3337837458 -10.4197779563 0.0011741924 1
-91.8893676996 121.3337837458 -10.7955481749 -0.1422663012 1
-90.1115916967 121.3337837458 -10.9239575734 -0.0259525167 1
-88.3338156939 121.3337837458 -11.0483389191 0.0861656777 1
-86.556039691 121.3337837458 -10.9838370919 0.1770023501 1
-84.7782636881 121.3337837458 -10.7622168611 0.2005950265 1
-83.0004876852 121.3337837458 -10.6316652774 -0.013528988 1
-81.2227116823 121.3337837458 -10.6824533961 -0.1035021994 1
-79.4449356794 121.3337837458 -10.4557254282 0.0760504394 1
-77.6671596766 121.3337837458 -10.587756208 0.2793919306 1
-75.8893836737 121.3337837458 -10.5935183426 0.1773546079 1
-74.1116076708 121.3337837458 -10.6934578703 0.1663300864 1
-72.3338316679 121.3337837458 -10.7550872219 0.3152148235 1
-70.556055665 121.3337837458 -10.6354241251 0.4375313088 1
-68.7782796621 121.3337837458 0 -0 0
-67.0005036592 121.3337837458 0 -0 0
-65.2227276564 121.3337837458 0 -0 0
-63.4449516535 121.3337837458 0 -0 0
-61.6671756506 121.3337837458 0 -0 0
-59.8893996477 121.3337837458 -11.0072407519 0.881993217 1
-58.1116236448 121.3337837458 -10.6974071664 0.2600707373 1
-56.3338476419 121.3337837458 -10.9109311971 0.0210438196 1
-54.5560716391 121.3337837458 -10.8004711915 0.6175822635 1
-52.7782956362 121.3337837458 -10.8842612774 1.0505671565 1
-51.0005196333 121.3337837458 -11.0181922443 0.8632777351 1
-49.2227436304 121.3337837458 -10.8743994929 0.5418998332 1
-47.4449676275 121.3337837458 -10.5886712189 0.7543284283 1
-45.6671916246 121.3337837458 -10.594891575 0.8824342551 1
-43.8894156218 121.3337837458 -10.6232726653 0.8089656071 1
-42.1116396189 121.3337837458 -10.9042468919 0.6923682981 1
-40.333863616 121.3337837458 -11.0583353062 0.795982189 1
-38.5560876131 121.3337837458 -10.6506628518 1.0625696943 1
-36.7783116102 121.3337837458 -10.0763467158 1.0623405836 1
-35.0005356073 121.3337837458 -10.1074857264 1.1569747662 1
-33.2227596045 121.3337837458 -10.6084019477 1.5554985432 1
-31.4449836016 121.3337837458 -10.5172416564 1.4748930963 1
-29.6672075987 121.3337837458 -10.3280477521 1.1009357162 1
-27.8894315958 121.3337837458 -10.2741981414 0.925786299 1
-26.1116555929 121.3337837458 -10.1484106287 1.0872563743 1
-24.33387959 121.3337837458 -9.9301339824 1.0468254921 1
-22.5561035872 121.3337837458 -9.8266260552 0.869771592 1
-20.7783275843 121.3337837458 -10.0882461537 0.7340163311 1
-19.0005515814 121.3337837458 -10.1736099439 0.6584183853 1
-17.2227755785 121.3337837458 -10.390605002 0.4400987808 1
-15.4449995756 121.3337837458 -10.4451662879 0.2898350836 1
-13.6672235727 121.3337837458 -10.3537840456 0.6747009978 1
-11.8894475698 121.3337837458 -10.531098559 1.0395870253 1
-10.111671567 121.3337837458 -10.2648618795 1.0356262737 1
-8.3338955641 121.3337837458 -10.1538290972 0.7715904891 1
-6.5561195612 121.3337837458 -10.2797712596 0.9406999749 1
-4.7783435583 121.3337837458 -10.1340998003 0.9510271406 1
-3.0005675554 121.3337837458 -10.1013842216 0.9212384512 1
-1.2227915525 121.3337837458 -10.1479753183 1.0248265672 1
0.5549844503 121.3337837458 -9.8844965591 1.0419010435 1
2.3327604532 121.3337837458 -9.7995580557 0.9606168561 1
4.1105364561 121.3337837458 -9.9185495717 0.8391795832 1
5.888312459 121.3337837458 -10.0348977227 0.672448553 1
7.6660884619 121.3337837458 -10.0366346684 0.5933538049 1
9.4438644648 121.3337837458 -10.1324616587 0.7781917417 1
11.2216404676 121.3337837458 -10.3831861106 0.8043447303 1
12.9994164705 121.3337837458 0 -0 0
14.7771924734 121.3337837458 0 -0 0
16.5549684763 121.3337837458 0 -0 0
18.3327444792 121.3337837458 0 -0 0
20.1105204821 121.3337837458 0 -0 0
21.8882964849 121.3337837458 0 -0 0
23.6660724878 121.3337837458 0 -0 0
25.4438484907 121.3337837458 0 -0 0
27.2216244936 121.3337837458 0 -0 0
28.9994004965 121.3337837458 0 -0 0
30.7771764994 121.3337837458 0 -0 0
32.5549525023 121.3337837458 0 -0 0
34.3327285051 121.3337837458 0 -0 0
36.110504508 121.3337837458 -9.8252785978 0.5099947336 1
37.8882805109 121.3337837458 -9.1938022011 0.1320579867 1
39.6660565138 121.3337837458 -9.6583385041 0.4817568374 1
41.4438325167 121.3337837458 -10.0166189832 0.6070317149 1
43.2216085196 121.3337837458 -10.1160644909 0.5497483073 1
44.9993845224 121.3337837458 -9.4797839288 0.3802736762 1
46.7771605253 121.3337837458 -9.1614388801 0.1580634853 1
48.5549365282 121.3337837458 -9.4589262617 0.1162450512 1
50.3327125311 121.3337837458 -9.289271206 0.3946876043 1
52.110488534 121.3337837458 -9.0794286981 0.7078676383 1
53.8882645369 121.3337837458 0 -0 0
-125.6671117544 119.5560077429 0 -0 0
-123.8893357515 119.5560077429 -10.3297932894 -0.2392001827 1
-122.1115597486 119.5560077429 -10.2433870454 -0.0721956516 1
-120.3337837458 119.5560077429 -9.8761726802 0.0511776069 1
-118.5560077429 119.5560077429 -10.1304870107 -0.0787825847 1
-116.77823174 119.5560077429 -10.6314476222 -0.3380356831 1
-115.0004557371 119.5560077429 -10.6934449829 -0.2735682225 1
-113.2226797342 119.5560077429 -10.7216628318 -0.0677279925 1
-111.4449037313 119.5560077429 -10.5379589931 -0.2452458418 1
-109.6671277285 119.5560077429 -10.655422627 -0.299699732 1
-107.8893517256 119.5560077429 -10.8485457802 -0.1382339525 1
-106.1115757227 119.5560077429 -10.5911112481 -0.0539613022 1
-104.3337997198 119.5560077429 -10.3982272293 -0.2752035003 1
-102.5560237169 119.5560077429 -10.583560618 -0.1753183863 1
-100.778247714 119.5560077429 -11.0639299036 0.2116710978 1
-99.0004717112 119.5560077429 -11.0247777455 0.139506949 1
-97.2226957083 119.5560077429 -10.687468057 -0.0649170904 1
-95.4449197054 119.5560077429 -10.4672940876 -0.0358687151 1
-93.6671437025 119.5560077429 -10.4751439936 -0.127976952 1
-91.8893676996 119.5560077429 -10.8053841845 -0.2110396114 1
-90.1115916967 119.5560077429 -10.8945010946 -0.0078198352 1
-88.3338156939 119.5560077429 -11.0120391895 0.1743690088 1
-86.556039691 119.5560077429 -10.9737075342 0.160711146 1
-84.7782636881 119.5560077429 -10.8361222514 0.0944809648 1
-83.0004876852 119.5560077429 -10.4048442333 0.0386280673 1
-81.2227116823 119.5560077429 -10.7439409854 -0.0641452737 1
-79.4449356794 119.5560077429 -10.6201481679 -0.0494621404 1
-77.6671596766 119.5560077429 -10.3943566901 0.0996488435 1
-75.8893836737 119.5560077429 -10.5294604174 0.1303854785 1
-74.1116076708 119.5560077429 -10.8418929776 0.166216963 1
-72.3338316679 119.5560077429 -10.944064903 0.2977923853 1
-70.556055665 119.5560077429 -10.9366646267 0.3853484786 1
-68.7782796621 119.5560077429 0 -0 0
-67.0005036592 119.5560077429 0 -0 0
-65.2227276564 119.5560077429 0 -0 0
-63.4449516535 119.5560077429 0 -0 0
-61.6671756506 119.5560077429 0 -0 0
-59.8893996477 119.5560077429 -10.8789344532 0.888633132 1
-58.1116236448 119.5560077429 -10.1573187398 0.0626102318 1
-56.3338476419 119.5560077429 -10.6965408414 -0.1734096077 1
-54.5560716391 119.5560077429 -10.9412396814 0.5791947625 1
-52.7782956362 119.5560077429 -10.7931940623 0.9640391975 1
-51.0005196333 119.5560077429 -11.0223004858 1.0404605099 1
-49.2227436304 119.5560077429 -11.0359597805 0.8145415892 1
-47.4449676275 119.5560077429 -10.2931756686 0.9410350493 1
-45.6671916246 119.5560077429 -10.4054857433 1.1619521966 1
-43.8894156218 119.5560077429 -10.605333296 1.0813467497 1
-42.1116396189 119.5560077429 -10.7066374645 0.7386644148 1
-40.333863616 119.5560077429 -10.5298083793 0.3998168206 1
-38.5560876131 119.5560077429 -10.0581567566 1.0735211867 1
-36.7783116102 119.5560077429 -10.017363593 1.5480653323 1
-35.0005356073 119.5560077429 -10.0390503545 1.1142083866 1
-33.2227596045 119.5560077429 -11.0087958409 0.9873913076 1
-31.4449836016 119.5560077429 -11.2821320888 0.9773490984 1
-29.6672075987 119.5560077429 -10.4912848438 0.7471715822 1
-27.8894315958 119.5560077429 -10.1822660333 0.9569310374 1
-26.1116555929 119.5560077429 -10.2501486755 1.2923076043 1
-24.33387959 119.5560077429 -10.1160000535 1.029423101 1
-22.5561035872 119.5560077429 -9.9182316805 1.052948476 1
-20.7783275843 119.5560077429 -9.8033369506 0.7026281625 1
-19.0005515814 119.5560077429 -10.0100205944 0.4516660083 1
-17.2227755785 119.5560077429 -10.264259032 0.3846654423 1
-15.4449995756 119.5560077429 -10.1208357216 0.636281994 1
-13.6672235727 119.5560077429 -10.2969832024 1.4707862866 1
-11.8894475698 119.5560077429 -10.408996865 1.7566420034 1
-10.111671567 119.5560077429 -10.2815554593 1.1603584452 1
-8.3338955641 119.5560077429 -10.0783113402 0.8461373894 1
-6.5561195612 119.5560077429 -9.8366711283 1.111729695 1
-4.7783435583 119.5560077429 -9.9195490672 1.1357390664 1
-3.0005675554 119.5560077429 -10.0703884051 0.7533203411 1
-1.2227915525 119.5560077429 -10.0123618196 0.8711777591 1
0.5549844503 119.5560077429 -9.9245179059 1.1396210612 1
2.3327604532 119.5560077429 -9.9196464392 0.9898943422 1
4.1105364561 119.5560077429 -10.1222046582 0.7841486204 1
5.888312459 119.5560077429 -9.8237206449 0.8054501895 1
7.6660884619 119.5560077429 -9.7567902441 0.8263751579 1
9.4438644648 119.5560077429 -9.8977534781 0.7797425348 1
11.2216404676 119.5560077429 -10.0163225712 0.8230730996 1
12.9994164705 119.5560077429 0 -0 0
14.7771924734 119.5560077429 0 -0 0
16.5549684763 119.5560077429 0 -0 0
18.3327444792 119.5560077429 0 -0 0
20.1105204821 119.5560077429 0 -0 0
21.8882964849 119.5560077429 0 -0 0
23.6660724878 119.5560077429 0 -0 0
25.4438484907 119.5560077429 0 -0 0
27.2216244936 119.5560077429 0 -0 0
28.9994004965 119.5560077429 0 -0 0
30.7771764994 119.5560077429 0 -0 0
32.5549525023 119.5560077429 0 -0 0
34.3327285051 119.5560077429 0 -0 0
36.110504508 119.5560077429 -9.7232341153 0.6932561022 1
37.8882805109 119.5560077429 -9.4560280111 0.3128936456 1
39.6660565138 119.5560077429 -9.4385883895 0.2160242015 1
41.4438325167 119.5560077429 -9.8225049262 0.1293444566 1
43.2216085196 119.5560077429 -10.1797272001 0.097118602 1
44.9993845224 119.5560077429 -9.4962254868 0.1820227388 1
46.7771605253 119.5560077429 -9.2016678585 0.0810951711 1
48.5549365282 119.5560077429 -9.0530193918 0.2558336209 1
50.3327125311 119.5560077429 -8.8075616226 0.538693715 1
52.110488534 119.5560077429 -8.719444208 0.5505659461 1
53.8882645369 119.5560077429 0 -0 0
-125.6671117544 117.77823174 0 -0 0
-123.8893357515 117.77823174 -10.2173786829 -0.3766909573 1
-122.1115597486 117.77823174 -10.1498239554 -0.2208383905 1
-120.3337837458 117.77823174 -9.9850962121 0.0385650618 1
-118.5560077429 117.77823174 -10.2766567858 0.1311487035 1
-116.77823174 117.77823174 -10.5266337639 -0.2646715669 1
-115.0004557371 117.77823174 -10.39001361 -0.3595677949 1
-113.2226797342 117.77823174 -10.4769024184 -0.1198005632 1
-111.4449037313 117.77823174 -10.5711199059 -0.1923298573 1
-109.6671277285 117.77823174 -10.8594471546 -0.2250425722 1
-107.8893517256 117.77823174 -10.8996575178 -0.1650871608 1
-106.1115757227 117.77823174 -10.4414074402 -0.206408711 1
-104.3337997198 117.77823174 -10.4234279765 -0.4537394603 1
-102.5560237169 117.77823174 -10.6661106421 -0.2129899164 1
-100.778247714 117.77823174 -10.6956730846 0.0386538422 1
-99.0004717112 117.77823174 -10.712130394 -0.0346129019 1
-97.2226957083 117.77823174 -10.767550845 0.0256174423 1
-95.4449197054 117.77823174 -10.8207947443 0.0765587788 1
-93.6671437025 117.77823174 -10.8528931561 -0.0889622604 1
-91.8893676996 117.77823174 -10.7631691025 -0.0165976397 1
-90.1115916967 117.77823174 -10.7592999953 0.2126204753 1
-88.3338156939 117.77823174 -11.0122897794 0.2489173411 1
-86.556039691 117.77823174 -10.9401757485 0.05638558 1
-84.7782636881 117.77823174 -10.8342363838 0.2293756286 1
-83.0004876852 117.77823174 -10.7894839006 0.4695767388 1
-81.2227116823 117.77823174 -10.9156379904 0.2514891089 1
-79.4449356794 117.77823174 -11.0204002988 -0.02434015 1
-77.6671596766 117.77823174 -10.8918376825 0.1178201874 1
-75.8893836737 117.77823174 -10.9729314216 0.2612850241 1
-74.1116076708 117.77823174 -11.1097849821 0.386721711 1
-72.3338316679 117.77823174 -10.8772018034 0.521884148 1
-70.556055665 117.77823174 -10.9139840974 0.5669917528 1
-68.7782796621 117.77823174 0 -0 0
-67.0005036592 117.77823174 0 -0 0
-65.2227276564 117.77823174 0 -0 0
-63.4449516535 117.77823174 0 -0 0
-61.6671756506 117.77823174 0 -0 0
-59.8893996477 117.77823174 -10.5178301845 0.5383700962 1
-58.1116236448 117.77823174 -10.2409341288 0.2456525133 1
-56.3338476419 117.77823174 -10.3676194691 0.3420121861 1
-54.5560716391 117.77823174 -10.7701269087 0.6283003493 1
-52.7782956362 117.77823174 -10.8479171576 1.1927289259 1
-51.0005196333 117.77823174 -11.0985886276 1.2027367685 1
-49.2227436304 117.77823174 -10.9043371042 0.7968886083 1
-47.4449676275 117.77823174 -10.5561876148 0.9546256108 1
-45.6671916246 117.77823174 -10.6543042803 1.1350975564 1
-43.8894156218 117.77823174 -10.9415819155 1.0740266622 1
-42.1116396189 117.77823174 -10.8836956603 0.8069580244 1
-40.333863616 117.77823174 -10.6101002309 0.6833556552 1
-38.5560876131 117.77823174 -10.1577268433 0.9810377809 1
-36.7783116102 117.77823174 -10.0161765131 1.333195276 1
-35.0005356073 117.77823174 -9.9033079811 1.0854664468 1
-33.2227596045 117.77823174 -10.4524634643 0.7484517383 1
-31.4449836016 117.77823174 0 -0 0
-29.6672075987 117.77823174 -10.5209059959 0.9034766427 1
-27.8894315958 117.77823174 -10.3043090176 0.8779408211 1
-26.1116555929 117.77823174 -10.5633043665 0.979358113 1
-24.33387959 117.77823174 -10.3988128936 1.1377108506 1
-22.5561035872 117.77823174 -9.6896207089 1.2881005587 1
-20.7783275843 117.77823174 -10.2946505689 1.0180864162 1
-19.0005515814 117.77823174 -10.2903346957 0.710861829 1
-17.2227755785 117.77823174 -10.3112725516 0.9543363585 1
-15.4449995756 117.77823174 -10.3264382493 1.083659336 1
-13.6672235727 117.77823174 -10.3066015568 1.3603606476 1
-11.8894475698 117.77823174 -10.3492247422 1.6448660431 1
-10.111671567 117.77823174 -10.2335825386 1.2774440464 1
-8.3338955641 117.77823174 -10.0069719899 1.0273381934 1
-6.5561195612 117.77823174 -10.0280329928 1.1043437382 1