TITLE = "B00093"
VARIABLES = "x", "y", "Vx", "Vy", "isValid"
ZONE T="Frame 0", I=102, J=78, F=POINT
-125.6671117544 126.6671117544 0 -0 0
-123.8893357515 126.6671117544 0 -0 0
-122.1115597486 126.6671117544 0 -0 0
-120.3337837458 126.6671117544 0 -0 0
-118.5560077429 126.6671117544 0 -0 0
-116.77823174 126.6671117544 0 -0 0
-115.0004557371 126.6671117544 0 -0 0
-113.2226797342 126.6671117544 0 -0 0
-111.4449037313 126.6671117544 0 -0 0
-109.6671277285 126.6671117544 0 -0 0
-107.8893517256 126.6671117544 0 -0 0
-106.1115757227 126.6671117544 0 -0 0
-104.3337997198 126.6671117544 0 -0 0
-102.5560237169 126.6671117544 0 -0 0
-100.778247714 126.6671117544 0 -0 0
-99.0004717112 126.6671117544 0 -0 0
-97.2226957083 126.6671117544 0 -0 0
-95.4449197054 126.6671117544 0 -0 0
-93.6671437025 126.6671117544 0 -0 0
-91.8893676996 126.6671117544 0 -0 0
-90.1115916967 126.6671117544 0 -0 0
-88.3338156939 126.6671117544 0 -0 0
-86.556039691 126.6671117544 0 -0 0
-84.7782636881 126.6671117544 0 -0 0
-83.0004876852 126.6671117544 0 -0 0
-81.2227116823 126.6671117544 0 -0 0
-79.4449356794 126.6671117544 0 -0 0
-77.6671596766 126.6671117544 0 -0 0
-75.8893836737 126.6671117544 0 -0 0
-74.1116076708 126.6671117544 0 -0 0
-72.3338316679 126.6671117544 0 -0 0
-70.556055665 126.6671117544 0 -0 0
-68.7782796621 126.6671117544 0 -0 0
-67.0005036592 126.6671117544 0 -0 0
-65.2227276564 126.6671117544 0 -0 0
-63.4449516535 126.6671117544 0 -0 0
-61.6671756506 126.6671117544 0 -0 0
-59.8893996477 126.6671117544 0 -0 0
-58.1116236448 126.6671117544 0 -0 0
-56.3338476419 126.6671117544 0 -0 0
-54.5560716391 126.6671117544 0 -0 0
-52.7782956362 126.6671117544 0 -0 0
-51.0005196333 126.6671117544 0 -0 0
-49.2227436304 126.6671117544 0 -0 0
-47.4449676275 126.6671117544 0 -0 0
-45.6671916246 126.6671117544 0 -0 0
-43.8894156218 126.6671117544 0 -0 0
-42.1116396189 126.6671117544 0 -0 0
-40.333863616 126.6671117544 0 -0 0
-38.5560876131 126.6671117544 0 -0 0
-36.7783116102 126.6671117544 0 -0 0
-35.0005356073 126.6671117544 0 -0 0
-33.2227596045 126.6671117544 0 -0 0
-31.4449836016 126.6671117544 0 -0 0
-29.6672075987 126.6671117544 0 -0 0
-27.8894315958 126.6671117544 0 -0 0
-26.1116555929 126.6671117544 0 -0 0
-24.33387959 126.6671117544 0 -0 0
-22.5561035872 126.6671117544 0 -0 0
-20.7783275843 126.6671117544 0 -0 0
-19.0005515814 126.6671117544 0 -0 0
-17.2227755785 126.6671117544 0 -0 0
-15.4449995756 126.6671117544 0 -0 0
-13.6672235727 126.6671117544 0 -0 0
-11.8894475698 126.6671117544 0 -0 0
-10.111671567 126.6671117544 0 -0 0
-8.3338955641 126.6671117544 0 -0 0
-6.5561195612 126.6671117544 0 -0 0
-4.7783435583 126.6671117544 0 -0 0
-3.0005675554 126.6671117544 0 -0 0
-1.2227915525 126.6671117544 0 -0 0
0.5549844503 126.6671117544 0 -0 0
2.3327604532 126.6671117544 0 -0 0
4.1105364561 126.6671117544 0 -0 0
5.888312459 126.6671117544 0 -0 0
7.6660884619 126.6671117544 0 -0 0
9.4438644648 126.6671117544 0 -0 0
11.2216404676 126.6671117544 0 -0 0
12.9994164705 126.6671117544 0 -0 0
14.7771924734 126.6671117544 0 -0 0
16.5549684763 126.6671117544 0 -0 0
18.3327444792 126.6671117544 0 -0 0
20.1105204821 126.6671117544 0 -0 0
21.8882964849 126.6671117544 0 -0 0
23.6660724878 126.6671117544 0 -0 0
25.4438484907 126.6671117544 0 -0 0
27.2216244936 126.6671117544 0 -0 0
28.9994004965 126.6671117544 0 -0 0
30.7771764994 126.6671117544 0 -0 0
32.5549525023 126.6671117544 0 -0 0
34.3327285051 126.6671117544 0 -0 0
36.110504508 126.6671117544 0 -0 0
37.8882805109 126.6671117544 0 -0 0
39.6660565138 126.6671117544 0 -0 0
41.4438325167 126.6671117544 0 -0 0
43.2216085196 126.6671117544 0 -0 0
44.9993845224 126.6671117544 0 -0 0
46.7771605253 126.6671117544 0 -0 0
48.5549365282 126.6671117544 0 -0 0
50.3327125311 126.6671117544 0 -0 0
52.110488534 126.6671117544 0 -0 0
53.8882645369 126.6671117544 0 -0 0
-125.6671117544 124.8893357515 0 -0 0
-123.8893357515 124.8893357515 -11.0587376819 -0.1571470424 1
-122.1115597486 124.8893357515 -10.809027045 -0.0960503733 1
-120.3337837458 124.8893357515 -10.7229888101 -0.1287015147 1
-118.5560077429 124.8893357515 -10.4913521451 -0.1673209903 1
-116.77823174 124.8893357515 -10.4343536939 -0.2364322388 1
-115.0004557371 124.8893357515 -10.4561607386 -0.1781121052 1
-113.2226797342 124.8893357515 -10.1413081963 0.1292227416 1
-111.4449037313 124.8893357515 -10.4438732443 0.0474388064 1
-109.6671277285 124.8893357515 -10.7353536293 -0.1390057693 1
-107.8893517256 124.8893357515 -10.3953733689 -0.2599590458 1
-106.1115757227 124.8893357515 -10.1256985967 -0.1625010735 1
-104.3337997198 124.8893357515 -10.4496138998 0.1210119861 1
-102.5560237169 124.8893357515 -10.3437661794 0.1091827133 1
-100.778247714 124.8893357515 -10.3243991639 -0.0446236084 1
-99.0004717112 124.8893357515 -10.4841967309 -0.1340870485 1
-97.2226957083 124.8893357515 -10.8166764791 -0.0140817176 1
-95.4449197054 124.8893357515 -10.9883935313 0.0870262748 1
-93.6671437025 124.8893357515 -11.0410030803 0.071369421 1
-91.8893676996 124.8893357515 -10.8082881629 0.1169209279 1
-90.1115916967 124.8893357515 -10.8423955893 0.096723386 1
-88.3338156939 124.8893357515 -10.9250458494 0.0316989 1
-86.556039691 124.8893357515 -10.7439810798 0.1569752094 1
-84.7782636881 124.8893357515 -11.0127465689 0.2175334683 1
-83.0004876852 124.8893357515 -10.8560319729 0.0735316534 1
-81.2227116823 124.8893357515 -10.5463702204 0.0081821166 1
-79.4449356794 124.8893357515 -10.4682363054 0.1227231568 1
-77.6671596766 124.8893357515 -10.4694104979 0.2100501395 1
-75.8893836737 124.8893357515 -10.3458611105 0.1534354488 1
-74.1116076708 124.8893357515 -10.478318609 0.1282447252 1
-72.3338316679 124.8893357515 -10.7969973002 0.0739483486 1
-70.556055665 124.8893357515 -10.9055112966 0.1326866092 1
-68.7782796621 124.8893357515 0 -0 0
-67.0005036592 124.8893357515 0 -0 0
-65.2227276564 124.8893357515 0 -0 0
-63.4449516535 124.8893357515 0 -0 0
-61.6671756506 124.8893357515 0 -0 0
-59.8893996477 124.8893357515 -10.9252735281 0.6095991869 1
-58.1116236448 124.8893357515 -10.8944123142 0.9449242038 1
-56.3338476419 124.8893357515 -10.619701402 1.2747920898 1
-54.5560716391 124.8893357515 -10.9218927131 0.9600140086 1
-52.7782956362 124.8893357515 -10.997734089 0.750608243 1
-51.0005196333 124.8893357515 -10.6764850619 0.6744790468 1
-49.2227436304 124.8893357515 -10.5729169931 0.2091780868 1
-47.4449676275 124.8893357515 -10.6009286424 0.2264329878 1
-45.6671916246 124.8893357515 -10.8356898049 0.5615489412 1
-43.8894156218 124.8893357515 -11.1259988613 0.7160153882 1
-42.1116396189 124.8893357515 -10.804187081 0.8230330053 1
-40.333863616 124.8893357515 -10.4853694914 0.8275436226 1
-38.5560876131 124.8893357515 -10.6734307296 0.8183333716 1
-36.7783116102 124.8893357515 -10.3269694997 0.9326639164 1
-35.0005356073 124.8893357515 -9.9627120948 0.9104301531 1
-33.2227596045 124.8893357515 -10.269295172 0.7388434075 1
-31.4449836016 124.8893357515 -10.4918819636 0.6403615968 1
-29.6672075987 124.8893357515 -9.9195089728 0.8947145896 1
-27.8894315958 124.8893357515 -9.7261495492 1.3889923279 1
-26.1116555929 124.8893357515 -10.1103152438 1.1971894252 1
-24.33387959 124.8893357515 -10.6407996354 0.6063429508 1
-22.5561035872 124.8893357515 -10.4627075774 0.6487570727 1
-20.7783275843 124.8893357515 -10.3207405521 1.0975405817 1
-19.0005515814 124.8893357515 -10.5269115607 1.2059973005 1
-17.2227755785 124.8893357515 -9.7064431635 0.7387288522 1
-15.4449995756 124.8893357515 -9.8229073019 1.0452789947 1
-13.6672235727 124.8893357515 -10.0911257891 1.0193565488 1
-11.8894475698 124.8893357515 -10.4634980094 0.7199045427 1
-10.111671567 124.8893357515 -10.644856327 0.7792771537 1
-8.3338955641 124.8893357515 -10.1123299862 0.7222128332 1
-6.5561195612 124.8893357515 -9.8910777645 0.7438165421 1
-4.7783435583 124.8893357515 -10.2020082176 0.6871918278 1
-3.0005675554 124.8893357515 -10.0205339126 0.4814618573 1
-1.2227915525 124.8893357515 -10.2632609684 0.4397193162 1
0.5549844503 124.8893357515 -10.4625300166 0.5906345471 1
2.3327604532 124.8893357515 -10.1007856698 0.6784068637 1
4.1105364561 124.8893357515 -9.7184943873 0.848862375 1
5.888312459 124.8893357515 -9.6548860919 1.0942428193 1
7.6660884619 124.8893357515 -9.6905457435 1.0108651327 1
9.4438644648 124.8893357515 -9.8795248565 0.6919401475 1
11.2216404676 124.8893357515 0 -0 0
12.9994164705 124.8893357515 0 -0 0
14.7771924734 124.8893357515 0 -0 0
16.5549684763 124.8893357515 0 -0 0
18.3327444792 124.8893357515 0 -0 0
20.1105204821 124.8893357515 0 -0 0
21.8882964849 124.8893357515 0 -0 0
23.6660724878 124.8893357515 0 -0 0
25.4438484907 124.8893357515 0 -0 0
27.2216244936 124.8893357515 0 -0 0
28.9994004965 124.8893357515 0 -0 0
30.7771764994 124.8893357515 0 -0 0
32.5549525023 124.8893357515 0 -0 0
34.3327285051 124.8893357515 0 -0 0
36.110504508 124.8893357515 -9.4358147179 0.4516402333 1
37.8882805109 124.8893357515 -9.5036887685 0.5338480233 1
39.6660565138 124.8893357515 -9.4955023561 0.5172317684 1
41.4438325167 124.8893357515 -9.5698845831 0.3844792898 1
43.2216085196 124.8893357515 -9.6027519477 0.090501598 1
44.9993845224 124.8893357515 -9.5517819724 0.4969397184 1
46.7771605253 124.8893357515 -9.6503310844 0.4064094815 1
48.5549365282 124.8893357515 -9.6032116011 0.0284326403 1
50.3327125311 124.8893357515 -8.9460891233 0.4303515517 1
52.110488534 124.8893357515 -8.9065818436 0.3551416622 1
53.8882645369 124.8893357515 0 -0 0
-125.6671117544 123.1115597486 0 -0 0
-123.8893357515 123.1115597486 -11.0206809595 -0.3578781034 1
-122.1115597486 123.1115597486 -10.5647835626 -0.1613469283 1
-120.3337837458 123.1115597486 -10.529470441 -0.0562882079 1
-118.5560077429 123.1115597486 -10.5985172521 -0.1426872921 1
-116.77823174 123.1115597486 -10.6947337306 -0.3494411011 1
-115.0004557371 123.1115597486 -10.632167889 -0.1906215505 1
-113.2226797342 123.1115597486 -10.279686775 0.1717771938 1
-111.4449037313 123.1115597486 -10.4543020779 0.198829442 1
-109.6671277285 123.1115597486 -10.9457159321 -0.1221417884 1
-107.8893517256 123.1115597486 -10.6598688069 -0.2274396431 1
-106.1115757227 123.1115597486 -10.5641162776 -0.0734886952 1
-104.3337997198 123.1115597486 -10.9211681504 0.1150780185 1
-102.5560237169 123.1115597486 -10.5382811801 0.0471123236 1
-100.778247714 123.1115597486 -10.4631070892 -0.0620603661 1
-99.0004717112 123.1115597486 -10.6712742249 -0.1125048187 1
-97.2226957083 123.1115597486 -10.8277310713 -0.1145066737 1
-95.4449197054 123.1115597486 -10.9663158496 0.0070823851 1
-93.6671437025 123.1115597486 -11.0192819521 0.1188024996 1
-91.8893676996 123.1115597486 -11.0412422146 0.4023041038 1
-90.1115916967 123.1115597486 -10.9422635199 0.3936694936 1
-88.3338156939 123.1115597486 -11.0172027723 0.2332934219 1
-86.556039691 123.1115597486 -10.8788012826 0.215442833 1
-84.7782636881 123.1115597486 -10.8331022857 0.3026151659 1
-83.0004876852 123.1115597486 -10.9270004502 0.1971297268 1
-81.2227116823 123.1115597486 -10.912537836 0.1001972773 1
-79.4449356794 123.1115597486 -10.7096946606 0.2173014937 1
-77.6671596766 123.1115597486 -10.6832839224 0.3038065417 1
-75.8893836737 123.1115597486 -10.7414221994 0.2368704131 1
-74.1116076708 123.1115597486 -10.6799933197 0.1407126441 1
-72.3338316679 123.1115597486 -10.6646099669 0.2484419363 1
-70.556055665 123.1115597486 -10.719659545 0.413407382 1
-68.7782796621 123.1115597486 0 -0 0
-67.0005036592 123.1115597486 0 -0 0
-65.2227276564 123.1115597486 0 -0 0
-63.4449516535 123.1115597486 0 -0 0
-61.6671756506 123.1115597486 0 -0 0
-59.8893996477 123.1115597486 -10.4965243196 0.5339224843 1
-58.1116236448 123.1115597486 -10.7107184992 0.852393544 1
-56.3338476419 123.1115597486 -10.7284602605 1.2678686502 1
-54.5560716391 123.1115597486 -10.711634942 1.0297954059 1
-52.7782956362 123.1115597486 -10.5770553055 0.6092383375 1
-51.0005196333 123.1115597486 -10.834107509 0.5546527086 1
-49.2227436304 123.1115597486 -10.9556006277 0.4825129028 1
-47.4449676275 123.1115597486 -11.0390771183 0.2304739282 1
-45.6671916246 123.1115597486 -11.0590255022 0.4533113096 1
-43.8894156218 123.1115597486 -11.0226785185 0.9123503873 1
-42.1116396189 123.1115597486 -10.7918423091 0.9324290779 1
-40.333863616 123.1115597486 -10.6253890756 1.1329754184 1
-38.5560876131 123.1115597486 -10.7549998734 0.9736231853 1
-36.7783116102 123.1115597486 -10.4125294659 0.9158973076 1
-35.0005356073 123.1115597486 -10.0233720216 1.1314761751 1
-33.2227596045 123.1115597486 -10.0835436562 0.9168438213 1
-31.4449836016 123.1115597486 -10.0011497138 1.0675356692 1
-29.6672075987 123.1115597486 -9.2591989921 1.1786930305 1
-27.8894315958 123.1115597486 -10.0091284946 1.6024734003 1
-26.1116555929 123.1115597486 -10.3581972908 1.4587479503 1
-24.33387959 123.1115597486 -10.6435188932 0.7036620246 1
-22.5561035872 123.1115597486 -10.5635950507 0.6182781873 1
-20.7783275843 123.1115597486 -10.1184501063 0.774431462 1
-19.0005515814 123.1115597486 -10.1312803066 0.7800675857 1
-17.2227755785 123.1115597486 -10.4522014189 0.9690710417 1
-15.4449995756 123.1115597486 -10.5904611464 1.1448777202 1
-13.6672235727 123.1115597486 -10.7786440997 1.2607218277 1
-11.8894475698 123.1115597486 -10.7120172705 0.9863846524 1
-10.111671567 123.1115597486 -10.5059235868 0.7919713195 1
-8.3338955641 123.1115597486 -9.8288197904 0.8544942029 1
-6.5561195612 123.1115597486 -10.0061686705 1.0097310347 1
-4.7783435583 123.1115597486 -10.4311747827 0.6677403277 1
-3.0005675554 123.1115597486 -10.2424018693 0.513291064 1
-1.2227915525 123.1115597486 -10.1337031524 0.9184189575 1
0.5549844503 123.1115597486 -10.0760803745 0.7824947274 1
2.3327604532 123.1115597486 -9.6889677434 0.4415922963 1
4.1105364561 123.1115597486 -9.9040554548 0.8533328979 1
5.888312459 123.1115597486 -10.1951492154 1.216131154 1
7.6660884619 123.1115597486 -9.8746848925 1.0685394605 1
9.4438644648 123.1115597486 -9.83973978 0.8102071008 1
11.2216404676 123.1115597486 -10.3420278018 0.7490230832 1
12.9994164705 123.1115597486 0 -0 0
14.7771924734 123.1115597486 0 -0 0
16.5549684763 123.1115597486 0 -0 0
18.3327444792 123.1115597486 0 -0 0
20.1105204821 123.1115597486 0 -0 0
21.8882964849 123.1115597486 0 -0 0
23.6660724878 123.1115597486 0 -0 0
25.4438484907 123.1115597486 0 -0 0
27.2216244936 123.1115597486 0 -0 0
28.9994004965 123.1115597486 0 -0 0
30.7771764994 123.1115597486 0 -0 0
32.5549525023 123.1115597486 0 -0 0
34.3327285051 123.1115597486 0 -0 0
36.110504508 123.1115597486 -9.5359948119 0.832715797 1
37.8882805109 123.1115597486 -9.780886964 0.450166765 1
39.6660565138 123.1115597486 -10.0177731284 0.4129606161 1
41.4438325167 123.1115597486 -9.9503687548 0.3988731708 1
43.2216085196 123.1115597486 -9.7049611035 -0.0038676753 1
44.9993845224 123.1115597486 0 -0 0
46.7771605253 123.1115597486 -9.5136479251 0.3458096962 1
48.5549365282 123.1115597486 -10.1703207731 0.4745856719 1
50.3327125311 123.1115597486 -9.0513998654 0.2766096673 1
52.110488534 123.1115597486 0 -0 0
53.8882645369 123.1115597486 0 -0 0
-125.6671117544 121.3337837458 0 -0 0
-123.8893357515 121.3337837458 -10.5938419615 -0.4013232235 1
-122.1115597486 121.3337837458 -10.5267411596 -0.2250998498 1
-120.3337837458 121.3337837458 -10.541172271 -0.1831296299 1
-118.5560077429 121.3337837458 -10.6392889366 -0.2510308875 1
-116.77823174 121.3337837458 -10.8792136819 -0.3040843384 1
-115.0004557371 121.3337837458 -10.9082706489 -0.1814599856 1
-113.2226797342 121.3337837458 -10.5810088973 0.013775282 1
-111.4449037313 121.3337837458 -10.5703795919 0.054806148 1
-109.6671277285 121.3337837458 -10.7295514003 0.0382872651 1
-107.8893517256 121.3337837458 -10.7648902968 0.1493014322 1
-106.1115757227 121.3337837458 -10.7288067904 0.1291754875 1
-104.3337997198 121.3337837458 -10.8715298811 0.096452749 1
-102.5560237169 121.3337837458 -10.7977633892 -0.0054571309 1
-100.778247714 121.3337837458 -10.5578916257 -0.032413439 1
-99.0004717112 121.3337837458 -10.6744302251 0.1647162878 1
-97.2226957083 121.3337837458 -10.6772998368 0.1181065758 1
-95.4449197054 121.3337837458 -10.6998529233 0.1071049655 1
-93.6671437025 121.3337837458 -10.7212690478 0.1897895922 1
-91.8893676996 121.3337837458 -11.0280339816 0.2168031779 1
-90.1115916967 121.3337837458 -11.0885435545 0.4083340115 1
-88.3338156939 121.3337837458 -10.9791847123 0.4903799921 1
-86.556039691 121.3337837458 -10.6842905777 0.3748437521 1
-84.7782636881 121.3337837458 -10.5345967933 0.322461882 1
-83.0004876852 121.3337837458 -10.7977848683 0.2116467548 1
-81.2227116823 121.3337837458 -10.9919132447 0.3021483528 1
-79.4449356794 121.3337837458 -10.8799554278 0.4662689528 1
-77.6671596766 121.3337837458 -10.8742591626 0.4918105022 1
-75.8893836737 121.3337837458 -11.0668453375 0.280173771 1
-74.1116076708 121.3337837458 -11.0497780208 0.2281241113 1
-72.3338316679 121.3337837458 -10.882520036 0.4783702946 1
-70.556055665 121.3337837458 -10.7692935184 0.6246761041 1
-68.7782796621 121.3337837458 0 -0 0
-67.0005036592 121.3337837458 0 -0 0
-65.2227276564 121.3337837458 0 -0 0
-63.4449516535 121.3337837458 0 -0 0
-61.6671756506 121.3337837458 0 -0 0
-59.8893996477 121.3337837458 -10.710795824 0.6216203399 1
-58.1116236448 121.3337837458 -11.1464598805 0.4907050429 1
-56.3338476419 121.3337837458 -10.9546125877 0.751915606 1
-54.5560716391 121.3337837458 -10.8273917011 0.9083910677 1
-52.7782956362 121.3337837458 -10.674752412 0.7184325063 1
-51.0005196333 121.3337837458 -10.7703817944 0.7354969591 1
-49.2227436304 121.3337837458 -10.8816995332 0.6177698479 1
-47.4449676275 121.3337837458 -10.9127325801 0.348012023 1
-45.6671916246 121.3337837458 -10.7559120205 0.8126986799 1
-43.8894156218 121.3337837458 -10.3781829052 1.2478973552 1
-42.1116396189 121.3337837458 -10.5330817987 0.9705416461 1
-40.333863616 121.3337837458 -10.7622025417 1.0521379969 1
-38.5560876131 121.3337837458 -10.4929988784 1.1538903632 1
-36.7783116102 121.3337837458 -10.3481593774 1.1924668805 1
-35.0005356073 121.3337837458 -10.3022341337 1.2420936943 1
-33.2227596045 121.3337837458 -9.7159970805 0.6546079877 1
-31.4449836016 121.3337837458 -9.0837846656 1.1159553558 1
-29.6672075987 121.3337837458 -10.2556315814 1.6065515711 1
-27.8894315958 121.3337837458 -10.8379966635 1.560932763 1
-26.1116555929 121.3337837458 -10.614517772 1.3503170065 1
-24.33387959 121.3337837458 -10.3540661381 1.1875152251 1
-22.5561035872 121.3337837458 -10.5291353666 1.041889588 1
-20.7783275843 121.3337837458 -10.1972470104 0.899570305 1
-19.0005515814 121.3337837458 -10.2411618076 0.8683754486 1
-17.2227755785 121.3337837458 -10.4714166486 1.2436473514 1
-15.4449995756 121.3337837458 -10.7521402853 1.3387426193 1
-13.6672235727 121.3337837458 -10.8887489836 1.3438718356 1
-11.8894475698 121.3337837458 -10.7142969222 1.459247698 1
-10.111671567 121.3337837458 -10.2165037664 1.1822886368 1
-8.3338955641 121.3337837458 -9.8764934352 1.2508371321 1
-6.5561195612 121.3337837458 -10.1377985065 1.3636269073 1
-4.7783435583 121.3337837458 -10.2581732785 0.9314954518 1
-3.0005675554 121.3337837458 -9.9730177813 0.823236341 1
-1.2227915525 121.3337837458 -9.8155786227 1.0585244582 1
0.5549844503 121.3337837458 -9.5955951016 1.0336129633 1
2.3327604532 121.3337837458 -9.654612591 0.7812131393 1
4.1105364561 121.3337837458 -10.0813728322 0.7733317305 1
5.888312459 121.3337837458 -10.2561499444 0.9660066858 1
7.6660884619 121.3337837458 -9.8344659377 1.110124488 1
9.4438644648 121.3337837458 -9.7816301419 0.7049822752 1
11.2216404676 121.3337837458 -10.1012052288 0.5988610538 1
12.9994164705 121.3337837458 0 -0 0
14.7771924734 121.3337837458 0 -0 0
16.5549684763 121.3337837458 0 -0 0
18.3327444792 121.3337837458 0 -0 0
20.1105204821 121.3337837458 0 -0 0
21.8882964849 121.3337837458 0 -0 0
23.6660724878 121.3337837458 0 -0 0
25.4438484907 121.3337837458 0 -0 0
27.2216244936 121.3337837458 0 -0 0
28.9994004965 121.3337837458 0 -0 0
30.7771764994 121.3337837458 0 -0 0
32.5549525023 121.3337837458 0 -0 0
34.3327285051 121.3337837458 0 -0 0
36.110504508 121.3337837458 -9.4940675502 0.7015184075 1
37.8882805109 121.3337837458 -9.8414266077 0.5622534567 1
39.6660565138 121.3337837458 -10.8087392246 0.4394744541 1
41.4438325167 121.3337837458 -10.2050568221 0.4058080659 1
43.2216085196 121.3337837458 -9.375723272 0.7177623575 1
44.9993845224 121.3337837458 -9.2500359953 0.3133919614 1
46.7771605253 121.3337837458 -9.4503918874 0.3395879083 1
48.5549365282 121.3337837458 -9.7316539343 0.6518486355 1
50.3327125311 121.3337837458 -10.2401365371 0.3420164819 1
52.110488534 121.3337837458 -8.9885261563 0.2337459156 1
53.8882645369 121.3337837458 0 -0 0
-125.6671117544 119.5560077429 0 -0 0
-123.8893357515 119.5560077429 -10.5358597662 -0.3551846205 1
-122.1115597486 119.5560077429 -10.7262908684 -0.3339274415 1
-120.3337837458 119.5560077429 -10.6930039447 -0.4176931844 1
-118.5560077429 119.5560077429 -10.5692641091 -0.2782248979 1
-116.77823174 119.5560077429 -10.605556679 -0.0913263966 1
-115.0004557371 119.5560077429 -10.5707919912 -0.2018350882 1
-113.2226797342 119.5560077429 -10.5193337236 -0.3130597508 1
-111.4449037313 119.5560077429 -10.5227088109 -0.2086869307 1
-109.6671277285 119.5560077429 -10.580943028 -0.0206085092 1
-107.8893517256 119.5560077429 -10.5526850846 0.2452186349 1
-106.1115757227 119.5560077429 -10.5310598966 0.2203100039 1
-104.3337997198 119.5560077429 -10.635971127 0.014664518 1
-102.5560237169 119.5560077429 -10.8019761626 -0.0844015251 1
-100.778247714 119.5560077429 -10.6754368803 0.1084295118 1
-99.0004717112 119.5560077429 -10.6830533798 0.2027572589 1
-97.2226957083 119.5560077429 -10.5693242506 0.0069148479 1
-95.4449197054 119.5560077429 -10.7341550938 0.1110943559 1
-93.6671437025 119.5560077429 -10.9218898492 -0.0561206707 1
-91.8893676996 119.5560077429 -10.9992848821 -0.1714721901 1
-90.1115916967 119.5560077429 -10.973047409 0.155107957 1
-88.3338156939 119.5560077429 -10.9830180211 0.3197569436 1
-86.556039691 119.5560077429 -10.5731861982 0.3415167341 1
-84.7782636881 119.5560077429 -10.4563898493 0.270051373 1
-83.0004876852 119.5560077429 -10.6724255063 0.169500406 1
-81.2227116823 119.5560077429 -10.543639507 0.5052149112 1
-79.4449356794 119.5560077429 -10.6850366195 0.8101755981 1
-77.6671596766 119.5560077429 -10.8681948882 0.6702619776 1
-75.8893836737 119.5560077429 -10.9013930315 0.2744717779 1
-74.1116076708 119.5560077429 -11.0626339961 0.2129655734 1
-72.3338316679 119.5560077429 -11.1690186947 0.6158095193 1
-70.556055665 119.5560077429 -11.1731741904 0.6442178166 1
-68.7782796621 119.5560077429 0 -0 0
-67.0005036592 119.5560077429 0 -0 0
-65.2227276564 119.5560077429 0 -0 0
-63.4449516535 119.5560077429 0 -0 0
-61.6671756506 119.5560077429 0 -0 0
-59.8893996477 119.5560077429 -10.7518538969 0.4017528061 1
-58.1116236448 119.5560077429 -11.0148815944 0.5068960111 1
-56.3338476419 119.5560077429 -11.0847675235 0.7775817344 1
-54.5560716391 119.5560077429 -11.3201386933 0.7668364416 1
-52.7782956362 119.5560077429 -11.2676193567 0.7622413398 1
-51.0005196333 119.5560077429 -10.7800946569 0.8422740099 1
-49.2227436304 119.5560077429 -10.8346530789 0.9560761681 1
-47.4449676275 119.5560077429 -10.78623912 0.9766689259 1
-45.6671916246 119.5560077429 -10.5590615223 1.2008709481 1
-43.8894156218 119.5560077429 -10.2179657792 1.4244815783 1
-42.1116396189 119.5560077429 -10.4617395846 1.0862955412 1
-40.333863616 119.5560077429 -10.6470887246 1.0586418774 1
-38.5560876131 119.5560077429 -10.2934606251 1.1930826156 1
-36.7783116102 119.5560077429 -10.4301810149 1.1349872969 1
-35.0005356073 119.5560077429 -10.5810733347 1.0904424453 1
-33.2227596045 119.5560077429 -9.9569900546 1.0284479485 1
-31.4449836016 119.5560077429 -9.5222395771 0.9213959649 1
-29.6672075987 119.5560077429 -10.9959971433 1.3940699942 1
-27.8894315958 119.5560077429 -10.9228492503 1.2965404248 1
-26.1116555929 119.5560077429 -10.3747176056 1.5796382213 1
-24.33387959 119.5560077429 -10.1742170873 1.8278138164 1
-22.5561035872 119.5560077429 -10.5084781713 1.4358855643 1
-20.7783275843 119.5560077429 -10.4191550616 1.2709487575 1
-19.0005515814 119.5560077429 -10.6624319831 1.1719099213 1
-17.2227755785 119.5560077429 -10.7508758805 1.3215006058 1
-15.4449995756 119.5560077429 -10.6671530959 1.5119646426 1
-13.6672235727 119.5560077429 -10.4099090121 1.3537436437 1
-11.8894475698 119.5560077429 -10.3624200877 1.1588778171 1
-10.111671567 119.5560077429 -10.0111833313 1.4762935355 1
-8.3338955641 119.5560077429 -10.0236426586 1.6706710699 1
-6.5561195612 119.5560077429 -10.1217493006 1.2446067525 1
-4.7783435583 119.5560077429 -9.9364617341 0.8355224034 1
-3.0005675554 119.5560077429 -10.0525120412 0.9703769728 1
-1.2227915525 119.5560077429 -9.99181202 1.1336240881 1
0.5549844503 119.5560077429 -10.1203588849 1.1773627564 1
2.3327604532 119.5560077429 -10.0262831597 1.053419585 1
4.1105364561 119.5560077429 -10.0943276114 0.8056234545 1
5.888312459 119.5560077429 -9.9888393084 0.6982793547 1
7.6660884619 119.5560077429 -9.6643097022 0.7663008953 1
9.4438644648 119.5560077429 -9.6383156592 0.8107727179 1
11.2216404676 119.5560077429 -10.0924818382 0.9134501187 1
12.9994164705 119.5560077429 0 -0 0
14.7771924734 119.5560077429 0 -0 0
16.5549684763 119.5560077429 0 -0 0
18.3327444792 119.5560077429 0 -0 0
20.1105204821 119.5560077429 0 -0 0
21.8882964849 119.5560077429 0 -0 0
23.6660724878 119.5560077429 0 -0 0
25.4438484907 119.5560077429 0 -0 0
27.2216244936 119.5560077429 0 -0 0
28.9994004965 119.5560077429 0 -0 0
30.7771764994 119.5560077429 0 -0 0
32.5549525023 119.5560077429 0 -0 0
34.3327285051 119.5560077429 0 -0 0
36.110504508 119.5560077429 -9.7693412157 0.4805769172 1
37.8882805109 119.5560077429 -9.8067650197 0.3946790127 1
39.6660565138 119.5560077429 -10.0173721846 0.3426651516 1
41.4438325167 119.5560077429 -9.8420537983 0.4566119359 1
43.2216085196 119.5560077429 -8.9296532931 0.7037694203 1
44.9993845224 119.5560077429 -9.305636871 0.5048168313 1
46.7771605253 119.5560077429 -9.2003762468 0.5830610059 1
48.5549365282 119.5560077429 -9.1529689432 0.9866524255 1
50.3327125311 119.5560077429 -9.8034830087 0.8772406015 1
52.110488534 119.5560077429 -10.3490786842 -0.0183489047 1
53.8882645369 119.5560077429 0 -0 0
-125.6671117544 117.77823174 0 -0 0
-123.8893357515 117.77823174 -10.5723986301 -0.2363792569 1
-122.1115597486 117.77823174 -10.8899160164 -0.2871430326 1
-120.3337837458 117.77823174 -10.8984775976 -0.2496247204 1
-118.5560077429 117.77823174 -10.6671287528 -0.1610548121 1
-116.77823174 117.77823174 -10.4981696209 -0.0568838958 1
-115.0004557371 117.77823174 -10.3237762691 -0.1055427168 1
-113.2226797342 117.77823174 -10.3503803194 -0.1744005115 1
-111.4449037313 117.77823174 -10.5832427268 -0.2012508559 1
-109.6671277285 117.77823174 -10.5607598056 -0.3640984594 1
-107.8893517256 117.77823174 -10.4396518793 -0.1677133424 1
-106.1115757227 117.77823174 -10.5326121217 0.0481719607 1
-104.3337997198 117.77823174 -10.7363803317 -0.0544009084 1
-102.5560237169 117.77823174 -10.7915602165 -0.0868157793 1
-100.778247714 117.77823174 -10.7234914218 0.0970570285 1
-99.0004717112 117.77823174 -10.7636230281 0.1997602043 1
-97.2226957083 117.77823174 -10.7396107928 0.1880311674 1
-95.4449197054 117.77823174 -10.6613036128 0.1480055247 1
-93.6671437025 117.77823174 -10.6726345698 0.0200070936 1
-91.8893676996 117.77823174 -10.6816500766 -0.0548977922 1
-90.1115916967 117.77823174 -10.5692583813 0.0201288086 1
-88.3338156939 117.77823174 -11.0579630013 0.2151406933 1
-86.556039691 117.77823174 -11.1894095487 0.4016640257 1
-84.7782636881 117.77823174 -10.9768678302 0.2316710317 1
-83.0004876852 117.77823174 -10.7951887575 -0.010763908 1
-81.2227116823 117.77823174 -10.6124128172 0.1792934573 1
-79.4449356794 117.77823174 -10.7663480138 0.4599956149 1
-77.6671596766 117.77823174 -10.9976309891 0.3264799112 1
-75.8893836737 117.77823174 -10.9122886781 0.093540179 1
-74.1116076708 117.77823174 -10.7628540753 0.2264029171 1
-72.3338316679 117.77823174 -10.8800914623 0.4963068 1
-70.556055665 117.77823174 -10.9849983969 0.6379845731 1
-68.7782796621 117.77823174 0 -0 0
-67.0005036592 117.77823174 0 -0 0
-65.2227276564 117.77823174 0 -0 0
-63.4449516535 117.77823174 0 -0 0
-61.6671756506 117.77823174 0 -0 0
-59.8893996477 117.77823174 -10.6810257499 0.5696866676 1
-58.1116236448 117.77823174 -10.5310441453 0.6748628072 1
-56.3338476419 117.77823174 -10.8021537234 1.0233387794 1
-54.5560716391 117.77823174 -11.2555466537 0.7920744193 1
-52.7782956362 117.77823174 -11.0556174803 0.602830397 1
-51.0005196333 117.77823174 -10.4301351928 0.6994349319 1
-49.2227436304 117.77823174 -10.6001453702 1.0408585898 1
-47.4449676275 117.77823174 -10.9825197053 1.0925474 1
-45.6671916246 117.77823174 -10.8491486277 1.0420184628 1
-43.8894156218 117.77823174 -10.7194719606 1.1112686097 1
-42.1116396189 117.77823174 -10.716820004 1.069908397 1
-40.333863616 117.77823174 -10.5204964605 1.1180187842 1
-38.5560876131 117.77823174 -10.6145936649 1.07092078 1
-36.7783116102 117.77823174 -10.8120971286 0.9010308858 1
-35.0005356073 117.77823174 -10.8325653075 1.0011279271 1
-33.2227596045 117.77823174 -10.5147443495 1.2656076138 1
-31.4449836016 117.77823174 -9.9407690156 0.9099991385 1
-29.6672075987 117.77823174 -10.6577022787 0.941832641 1
-27.8894315958 117.77823174 -10.9624610618 0.9081247264 1
-26.1116555929 117.77823174 -10.645598073 1.0420900599 1
-24.33387959 117.77823174 -10.7068995098 1.2317593689 1
-22.5561035872 117.77823174 -10.5872149339 1.3844158412 1
-20.7783275843 117.77823174 -10.7015655259 1.4588897125 1
-19.0005515814 117.77823174 -10.7122506771 1.2918479509 1
-17.2227755785 117.77823174 -10.7537297409 1.4084223488 1
-15.4449995756 117.77823174 -10.3512695554 1.6837447003 1
-13.6672235727 117.77823174 -9.761358139 1.2597724502 1
-11.8894475698 117.77823174 -10.0107551807 0.6993304001 1
-10.111671567 117.77823174 -10.065972296 1.5699497018 1
-8.3338955641 117.77823174 -10.0937276277 1.726385069 1
-6.5561195612 117.77823174 -10.3785953045 1.2348351803 1