TITLE = "B00056"
VARIABLES = "x", "y", "Vx", "Vy", "isValid"
ZONE T="Frame 0", I=102, J=78, F=POINT
-125.6671117544 126.6671117544 0 -0 0
-123.8893357515 126.6671117544 0 -0 0
-122.1115597486 126.6671117544 0 -0 0
-120.3337837458 126.6671117544 0 -0 0
-118.5560077429 126.6671117544 0 -0 0
-116.77823174 126.6671117544 0 -0 0
-115.0004557371 126.6671117544 0 -0 0
-113.2226797342 126.6671117544 0 -0 0
-111.4449037313 126.6671117544 0 -0 0
-109.6671277285 126.6671117544 0 -0 0
-107.8893517256 126.6671117544 0 -0 0
-106.1115757227 126.6671117544 0 -0 0
-104.3337997198 126.6671117544 0 -0 0
-102.5560237169 126.6671117544 0 -0 0
-100.778247714 126.6671117544 0 -0 0
-99.0004717112 126.6671117544 0 -0 0
-97.2226957083 126.6671117544 0 -0 0
-95.4449197054 126.6671117544 0 -0 0
-93.6671437025 126.6671117544 0 -0 0
-91.8893676996 126.6671117544 0 -0 0
-90.1115916967 126.6671117544 0 -0 0
-88.3338156939 126.6671117544 0 -0 0
-86.556039691 126.6671117544 0 -0 0
-84.7782636881 126.6671117544 0 -0 0
-83.0004876852 126.6671117544 0 -0 0
-81.2227116823 126.6671117544 0 -0 0
-79.4449356794 126.6671117544 0 -0 0
-77.6671596766 126.6671117544 0 -0 0
-75.8893836737 126.6671117544 0 -0 0
-74.1116076708 126.6671117544 0 -0 0
-72.3338316679 126.6671117544 0 -0 0
-70.556055665 126.6671117544 0 -0 0
-68.7782796621 126.6671117544 0 -0 0
-67.0005036592 126.6671117544 0 -0 0
-65.2227276564 126.6671117544 0 -0 0
-63.4449516535 126.6671117544 0 -0 0
-61.6671756506 126.6671117544 0 -0 0
-59.8893996477 126.6671117544 0 -0 0
-58.1116236448 126.6671117544 0 -0 0
-56.3338476419 126.6671117544 0 -0 0
-54.5560716391 126.6671117544 0 -0 0
-52.7782956362 126.6671117544 0 -0 0
-51.0005196333 126.6671117544 0 -0 0
-49.2227436304 126.6671117544 0 -0 0
-47.4449676275 126.6671117544 0 -0 0
-45.6671916246 126.6671117544 0 -0 0
-43.8894156218 126.6671117544 0 -0 0
-42.1116396189 126.6671117544 0 -0 0
-40.333863616 126.6671117544 0 -0 0
-38.5560876131 126.6671117544 0 -0 0
-36.7783116102 126.6671117544 0 -0 0
-35.0005356073 126.6671117544 0 -0 0
-33.2227596045 126.6671117544 0 -0 0
-31.4449836016 126.6671117544 0 -0 0
-29.6672075987 126.6671117544 0 -0 0
-27.8894315958 126.6671117544 0 -0 0
-26.1116555929 126.6671117544 0 -0 0
-24.33387959 126.6671117544 0 -0 0
-22.5561035872 126.6671117544 0 -0 0
-20.7783275843 126.6671117544 0 -0 0
-19.0005515814 126.6671117544 0 -0 0
-17.2227755785 126.6671117544 0 -0 0
-15.4449995756 126.6671117544 0 -0 0
-13.6672235727 126.6671117544 0 -0 0
-11.8894475698 126.6671117544 0 -0 0
-10.111671567 126.6671117544 0 -0 0
-8.3338955641 126.6671117544 0 -0 0
-6.5561195612 126.6671117544 0 -0 0
-4.7783435583 126.6671117544 0 -0 0
-3.0005675554 126.6671117544 0 -0 0
-1.2227915525 126.6671117544 0 -0 0
0.5549844503 126.6671117544 0 -0 0
2.3327604532 126.6671117544 0 -0 0
4.1105364561 126.6671117544 0 -0 0
5.888312459 126.6671117544 0 -0 0
7.6660884619 126.6671117544 0 -0 0
9.4438644648 126.6671117544 0 -0 0
11.2216404676 126.6671117544 0 -0 0
12.9994164705 126.6671117544 0 -0 0
14.7771924734 126.6671117544 0 -0 0
16.5549684763 126.6671117544 0 -0 0
18.3327444792 126.6671117544 0 -0 0
20.1105204821 126.6671117544 0 -0 0
21.8882964849 126.6671117544 0 -0 0
23.6660724878 126.6671117544 0 -0 0
25.4438484907 126.6671117544 0 -0 0
27.2216244936 126.6671117544 0 -0 0
28.9994004965 126.6671117544 0 -0 0
30.7771764994 126.6671117544 0 -0 0
32.5549525023 126.6671117544 0 -0 0
34.3327285051 126.6671117544 0 -0 0
36.110504508 126.6671117544 0 -0 0
37.8882805109 126.6671117544 0 -0 0
39.6660565138 126.6671117544 0 -0 0
41.4438325167 126.6671117544 0 -0 0
43.2216085196 126.6671117544 0 -0 0
44.9993845224 126.6671117544 0 -0 0
46.7771605253 126.6671117544 0 -0 0
48.5549365282 126.6671117544 0 -0 0
50.3327125311 126.6671117544 0 -0 0
52.110488534 126.6671117544 0 -0 0
53.8882645369 126.6671117544 0 -0 0
-125.6671117544 124.8893357515 0 -0 0
-123.8893357515 124.8893357515 -10.0733596848 -0.1304040937 1
-122.1115597486 124.8893357515 -9.9446152118 -0.2166972142 1
-120.3337837458 124.8893357515 -9.9480375532 -0.3942923883 1
-118.5560077429 124.8893357515 -10.3195262652 -0.2318757994 1
-116.77823174 124.8893357515 -10.3782258635 -0.2384584367 1
-115.0004557371 124.8893357515 -10.4915311378 -0.3296931891 1
-113.2226797342 124.8893357515 -10.4313580713 -0.2133479019 1
-111.4449037313 124.8893357515 -10.2406749473 0.0146530624 1
-109.6671277285 124.8893357515 -10.3578106664 0.0293061249 1
-107.8893517256 124.8893357515 -10.5520951245 -0.1461368404 1
-106.1115757227 124.8893357515 -10.6209958776 -0.3039067776 1
-104.3337997198 124.8893357515 -10.5381279623 -0.1826642488 1
-102.5560237169 124.8893357515 -10.4275462417 -0.026118622 1
-100.778247714 124.8893357515 -10.6408597769 -0.1477735501 1
-99.0004717112 124.8893357515 -10.6666619398 -0.0296225841 1
-97.2226957083 124.8893357515 -10.7736466221 0.1073369401 1
-95.4449197054 124.8893357515 -10.7024246911 -0.1089793776 1
-93.6671437025 124.8893357515 -10.6922264002 -0.2525602015 1
-91.8893676996 124.8893357515 -10.8337437957 -0.0401602452 1
-90.1115916967 124.8893357515 -10.7815165753 0.1134527644 1
-88.3338156939 124.8893357515 -10.6307015804 0.1156665467 1
-86.556039691 124.8893357515 -10.635279499 -0.0231774131 1
-84.7782636881 124.8893357515 -10.8730677868 -0.0017627206 1
-83.0004876852 124.8893357515 -11.0663670688 0.1183571657 1
-81.2227116823 124.8893357515 -11.2179624721 0.0827691113 1
-79.4449356794 124.8893357515 -11.2694021245 0.094502444 1
-77.6671596766 124.8893357515 -10.9710584415 0.0742418967 1
-75.8893836737 124.8893357515 -10.6868609136 0.3270899185 1
-74.1116076708 124.8893357515 -10.6681740705 0.3046270444 1
-72.3338316679 124.8893357515 -10.8723131534 0.2399447925 1
-70.556055665 124.8893357515 -11.0607452646 0.1695519559 1
-68.7782796621 124.8893357515 0 -0 0
-67.0005036592 124.8893357515 0 -0 0
-65.2227276564 124.8893357515 0 -0 0
-63.4449516535 124.8893357515 0 -0 0
-61.6671756506 124.8893357515 0 -0 0
-59.8893996477 124.8893357515 -11.0622989216 0.6134682941 1
-58.1116236448 124.8893357515 -10.5924415222 0.6253591405 1
-56.3338476419 124.8893357515 -10.4169899653 0.6401167347 1
-54.5560716391 124.8893357515 -10.5957349888 0.8499377634 1
-52.7782956362 124.8893357515 -10.4141804951 1.0001298636 1
-51.0005196333 124.8893357515 -10.3320099356 0.6213153363 1
-49.2227436304 124.8893357515 -10.4778904584 0.5077637679 1
-47.4449676275 124.8893357515 -10.7600560606 0.6952336141 1
-45.6671916246 124.8893357515 -10.7382561757 0.4739685049 1
-43.8894156218 124.8893357515 -10.6212478994 0.6168949313 1
-42.1116396189 124.8893357515 -10.4660167953 0.7458899941 1
-40.333863616 124.8893357515 -10.5843209792 0.7946375955 1
-38.5560876131 124.8893357515 -10.8270652183 0.6984826904 1
-36.7783116102 124.8893357515 -10.7400833337 0.7600819712 1
-35.0005356073 124.8893357515 -10.4720424072 0.9800755159 1
-33.2227596045 124.8893357515 -10.3894308096 0.841851587 1
-31.4449836016 124.8893357515 -10.0585791795 0.638849466 1
-29.6672075987 124.8893357515 -10.4371330933 0.8470395128 1
-27.8894315958 124.8893357515 -10.8484111776 0.8944883428 1
-26.1116555929 124.8893357515 -10.3783260994 0.5741085045 1
-24.33387959 124.8893357515 -9.8844034828 0.4730577898 1
-22.5561035872 124.8893357515 -10.9308294631 0.6123499474 1
-20.7783275843 124.8893357515 -10.7038294262 0.8821550264 1
-19.0005515814 124.8893357515 -10.3987054979 1.1185371472 1
-17.2227755785 124.8893357515 -10.256357576 1.3077568265 1
-15.4449995756 124.8893357515 -10.1837366377 1.3160950247 1
-13.6672235727 124.8893357515 -10.4364171223 0.9937290829 1
-11.8894475698 124.8893357515 -10.680505955 0.8740101403 1
-10.111671567 124.8893357515 -10.3793771449 1.0243210917 1
-8.3338955641 124.8893357515 -10.1406452072 0.9368151163 1
-6.5561195612 124.8893357515 -9.9229198586 0.6818650036 1
-4.7783435583 124.8893357515 -9.8897031002 0.8298834158 1
-3.0005675554 124.8893357515 -9.8709332045 1.0801038241 1
-1.2227915525 124.8893357515 -9.8817858929 0.819163898 1
0.5549844503 124.8893357515 -10.0024083908 0.8330694867 1
2.3327604532 124.8893357515 -10.0123331808 0.6021444968 1
4.1105364561 124.8893357515 -10.0667111781 0.6593190769 1
5.888312459 124.8893357515 -9.9833435151 0.8760750007 1
7.6660884619 124.8893357515 -9.4518295572 0.8731724543 1
9.4438644648 124.8893357515 -9.7128754469 0.5919218629 1
11.2216404676 124.8893357515 0 -0 0
12.9994164705 124.8893357515 0 -0 0
14.7771924734 124.8893357515 0 -0 0
16.5549684763 124.8893357515 0 -0 0
18.3327444792 124.8893357515 0 -0 0
20.1105204821 124.8893357515 0 -0 0
21.8882964849 124.8893357515 0 -0 0
23.6660724878 124.8893357515 0 -0 0
25.4438484907 124.8893357515 0 -0 0
27.2216244936 124.8893357515 0 -0 0
28.9994004965 124.8893357515 0 -0 0
30.7771764994 124.8893357515 0 -0 0
32.5549525023 124.8893357515 0 -0 0
34.3327285051 124.8893357515 0 -0 0
36.110504508 124.8893357515 0 -0 0
37.8882805109 124.8893357515 -9.5682006193 0.8622653521 1
39.6660565138 124.8893357515 -9.2549088939 1.0743101867 1
41.4438325167 124.8893357515 -9.7548972168 0.5220631407 1
43.2216085196 124.8893357515 -9.3044182884 0.1248739337 1
44.9993845224 124.8893357515 -9.3541539297 0.6118158331 1
46.7771605253 124.8893357515 -9.4896185065 0.3494282137 1
48.5549365282 124.8893357515 -9.7821313216 0.2774158507 1
50.3327125311 124.8893357515 -10.1145022422 0.4111764164 1
52.110488534 124.8893357515 -9.5691614524 0.1302966981 1
53.8882645369 124.8893357515 0 -0 0
-125.6671117544 123.1115597486 0 -0 0
-123.8893357515 123.1115597486 -10.0183544969 -0.1335386147 1
-122.1115597486 123.1115597486 -10.0714437464 -0.2929194867 1
-120.3337837458 123.1115597486 -10.2794390491 -0.3418317614 1
-118.5560077429 123.1115597486 -10.5153056708 -0.1907461294 1
-116.77823174 123.1115597486 -10.4895221232 -0.1222219771 1
-115.0004557371 123.1115597486 -10.431562839 -0.1757422412 1
-113.2226797342 123.1115597486 -10.4217740835 -0.1359056148 1
-111.4449037313 123.1115597486 -10.2258113894 -0.1063961542 1
-109.6671277285 123.1115597486 -10.4560576387 -0.1774705952 1
-107.8893517256 123.1115597486 -10.9161506257 -0.3231492141 1
-106.1115757227 123.1115597486 -10.9405122549 -0.4589259542 1
-104.3337997198 123.1115597486 -10.8065469214 -0.329373866 1
-102.5560237169 123.1115597486 -10.7485604303 -0.0764714304 1
-100.778247714 123.1115597486 -10.9316041437 0.0575898432 1
-99.0004717112 123.1115597486 -10.74041984 0.1758324535 1
-97.2226957083 123.1115597486 -10.4399726343 0.0926351916 1
-95.4449197054 123.1115597486 -10.3746603279 -0.1386377602 1
-93.6671437025 123.1115597486 -10.8060156709 -0.2190413033 1
-91.8893676996 123.1115597486 -10.7844434648 0.1507720367 1
-90.1115916967 123.1115597486 -10.8302928155 0.2231252018 1
-88.3338156939 123.1115597486 -10.7477556789 0.2213753687 1
-86.556039691 123.1115597486 -10.6667163536 0.1509653488 1
-84.7782636881 123.1115597486 -10.8422008452 -0.0903741552 1
-83.0004876852 123.1115597486 -11.1461419894 -0.1288561644 1
-81.2227116823 123.1115597486 -11.1234471407 -0.1564797574 1
-79.4449356794 123.1115597486 -11.1159738354 -0.0061659422 1
-77.6671596766 123.1115597486 -11.0504281225 0.2811331721 1
-75.8893836737 123.1115597486 -10.7595104907 0.3888266657 1
-74.1116076708 123.1115597486 -10.6279236129 0.3691661021 1
-72.3338316679 123.1115597486 -10.8938409694 0.3421997705 1
-70.556055665 123.1115597486 -11.1753536061 0.2002871589 1
-68.7782796621 123.1115597486 0 -0 0
-67.0005036592 123.1115597486 0 -0 0
-65.2227276564 123.1115597486 0 -0 0
-63.4449516535 123.1115597486 0 -0 0
-61.6671756506 123.1115597486 0 -0 0
-59.8893996477 123.1115597486 -10.8655930496 0.6819337368 1
-58.1116236448 123.1115597486 -10.7724366311 0.4344354503 1
-56.3338476419 123.1115597486 -10.8055603134 0.4983745243 1
-54.5560716391 123.1115597486 -10.7284774438 1.0165886049 1
-52.7782956362 123.1115597486 -10.6523582712 1.0377369562 1
-51.0005196333 123.1115597486 -10.5461038792 0.7887580416 1
-49.2227436304 123.1115597486 -10.8185007732 0.7535337005 1
-47.4449676275 123.1115597486 -10.6460147681 0.8196708055 1
-45.6671916246 123.1115597486 -10.643599082 1.0495905721 1
-43.8894156218 123.1115597486 -10.5254810506 0.7467935495 1
-42.1116396189 123.1115597486 -10.4382342567 0.6246718083 1
-40.333863616 123.1115597486 -10.6679191848 0.9627504497 1
-38.5560876131 123.1115597486 -10.9015376576 0.9827661349 1
-36.7783116102 123.1115597486 -10.7075109491 0.8067890553 1
-35.0005356073 123.1115597486 -10.1564223441 0.9398909277 1
-33.2227596045 123.1115597486 -10.1430565975 0.748039339 1
-31.4449836016 123.1115597486 -10.3286863982 0.5343119725 1
-29.6672075987 123.1115597486 -10.208069628 0.8067231859 1
-27.8894315958 123.1115597486 -10.6585542842 1.1178627026 1
-26.1116555929 123.1115597486 -10.4309886302 0.7336941441 1
-24.33387959 123.1115597486 -10.4861799706 0.5011596514 1
-22.5561035872 123.1115597486 -10.9354417483 1.013474131 1
-20.7783275843 123.1115597486 -10.6987574877 1.129133518 1
-19.0005515814 123.1115597486 -10.5067183146 1.1784252573 1
-17.2227755785 123.1115597486 -10.1587621373 1.0105730166 1
-15.4449995756 123.1115597486 -10.1555918178 0.8920225387 1
-13.6672235727 123.1115597486 -10.5398849551 0.8909142156 1
-11.8894475698 123.1115597486 -10.4201087349 0.7647343508 1
-10.111671567 123.1115597486 -10.0836381644 0.5231141861 1
-8.3338955641 123.1115597486 -10.0545582863 0.6170810838 1
-6.5561195612 123.1115597486 -10.0899788036 0.7781201446 1
-4.7783435583 123.1115597486 -9.9692360225 1.0176840405 1
-3.0005675554 123.1115597486 -9.5585607858 1.1642647829 1
-1.2227915525 123.1115597486 -9.6737891582 0.7734248068 1
0.5549844503 123.1115597486 -9.9753088885 0.8453240463 1
2.3327604532 123.1115597486 -10.2643034222 0.6448908293 1
4.1105364561 123.1115597486 -10.1517556452 0.6662897705 1
5.888312459 123.1115597486 -9.7727563973 1.0705799778 1
7.6660884619 123.1115597486 -9.8437306024 1.0589425852 1
9.4438644648 123.1115597486 -9.8354496818 0.8851664004 1
11.2216404676 123.1115597486 -9.7500128626 0.7715332114 1
12.9994164705 123.1115597486 0 -0 0
14.7771924734 123.1115597486 0 -0 0
16.5549684763 123.1115597486 0 -0 0
18.3327444792 123.1115597486 0 -0 0
20.1105204821 123.1115597486 0 -0 0
21.8882964849 123.1115597486 0 -0 0
23.6660724878 123.1115597486 0 -0 0
25.4438484907 123.1115597486 0 -0 0
27.2216244936 123.1115597486 0 -0 0
28.9994004965 123.1115597486 0 -0 0
30.7771764994 123.1115597486 0 -0 0
32.5549525023 123.1115597486 0 -0 0
34.3327285051 123.1115597486 0 -0 0
36.110504508 123.1115597486 0 -0 0
37.8882805109 123.1115597486 -9.3635961553 0.9658090778 1
39.6660565138 123.1115597486 -9.1899660285 0.7618604432 1
41.4438325167 123.1115597486 -9.5652780257 0.2770435458 1
43.2216085196 123.1115597486 -9.6880269575 0.0764470873 1
44.9993845224 123.1115597486 -9.5479014096 0.3408580408 1
46.7771605253 123.1115597486 -9.4364963223 0.1172474106 1
48.5549365282 123.1115597486 -9.652292845 0.1079626987 1
50.3327125311 123.1115597486 -9.8700726073 0.4271726404 1
52.110488534 123.1115597486 -10.1079854742 0.4035498933 1
53.8882645369 123.1115597486 0 -0 0
-125.6671117544 121.3337837458 0 -0 0
-123.8893357515 121.3337837458 -9.5495968289 0.0897469646 1
-122.1115597486 121.3337837458 -10.2429903975 -0.2574144849 1
-120.3337837458 121.3337837458 -10.5970953337 -0.418148542 1
-118.5560077429 121.3337837458 -10.6782649658 -0.2173516117 1
-116.77823174 121.3337837458 -10.4626746427 -0.0484010714 1
-115.0004557371 121.3337837458 -10.429734249 -0.0425444286 1
-113.2226797342 121.3337837458 -10.4261730093 -0.1049885552 1
-111.4449037313 121.3337837458 -10.4174295715 -0.254448933 1
-109.6671277285 121.3337837458 -10.4940742668 -0.4139801588 1
-107.8893517256 121.3337837458 -10.6645455295 -0.3167154988 1
-106.1115757227 121.3337837458 -10.8789444768 -0.2589753016 1
-104.3337997198 121.3337837458 -10.7364261538 -0.3221597422 1
-102.5560237169 121.3337837458 -10.8383517851 -0.298392369 1
-100.778247714 121.3337837458 -11.0069801384 -0.1789411996 1
-99.0004717112 121.3337837458 -10.7448874991 0.0601014695 1
-97.2226957083 121.3337837458 -10.5229236022 -0.0119352365 1
-95.4449197054 121.3337837458 -10.436375596 -0.301131674 1
-93.6671437025 121.3337837458 -10.722424625 -0.2163335009 1
-91.8893676996 121.3337837458 -10.8144168746 0.2416745784 1
-90.1115916967 121.3337837458 -10.9587881306 0.2781933952 1
-88.3338156939 121.3337837458 -10.8384992751 0.2244382926 1
-86.556039691 121.3337837458 -10.6253131827 0.2593877009 1
-84.7782636881 121.3337837458 -10.7828382578 -0.0253453733 1
-83.0004876852 121.3337837458 -11.096284633 -0.2352580464 1
-81.2227116823 121.3337837458 -10.9792448539 -0.0922600228 1
-79.4449356794 121.3337837458 -11.0708948694 0.0520825943 1
-77.6671596766 121.3337837458 -11.2481363539 0.2092367964 1
-75.8893836737 121.3337837458 -11.072584561 0.2444625695 1
-74.1116076708 121.3337837458 -10.6895386451 0.3529049688 1
-72.3338316679 121.3337837458 -11.0475355996 0.4033565812 1
-70.556055665 121.3337837458 -11.0391172127 0.1821974357 1
-68.7782796621 121.3337837458 0 -0 0
-67.0005036592 121.3337837458 0 -0 0
-65.2227276564 121.3337837458 0 -0 0
-63.4449516535 121.3337837458 0 -0 0
-61.6671756506 121.3337837458 0 -0 0
-59.8893996477 121.3337837458 -11.0039172145 0.7276270059 1
-58.1116236448 121.3337837458 -11.161433698 0.4505691407 1
-56.3338476419 121.3337837458 -11.0542256327 0.4991892993 1
-54.5560716391 121.3337837458 -11.0158596108 0.7668879915 1
-52.7782956362 121.3337837458 -10.81759149 0.7764376127 1
-51.0005196333 121.3337837458 -10.5519533623 0.9249414532 1
-49.2227436304 121.3337837458 -10.9006469897 1.058355489 1
-47.4449676275 121.3337837458 -10.9364455396 0.9509541115 1
-45.6671916246 121.3337837458 -10.8957297009 0.7861991613 1
-43.8894156218 121.3337837458 -10.8993983363 0.892015379 1
-42.1116396189 121.3337837458 -10.7589377139 1.0109095229 1
-40.333863616 121.3337837458 -10.9892927909 1.0689332445 1
-38.5560876131 121.3337837458 -10.9026574362 1.2508127891 1
-36.7783116102 121.3337837458 -10.6327521213 1.2572150018 1
-35.0005356073 121.3337837458 -10.2965364365 1.0872105522 1
-33.2227596045 121.3337837458 -10.2330484242 0.9773648497 1
-31.4449836016 121.3337837458 -10.6312858127 0.8088181171 1
-29.6672075987 121.3337837458 -10.502807681 0.8245981179 1
-27.8894315958 121.3337837458 -10.4075778105 1.0493585975 1
-26.1116555929 121.3337837458 -10.2789321416 1.2281608987 1
-24.33387959 121.3337837458 -10.7604212058 0.9724776317 1
-22.5561035872 121.3337837458 -10.501229681 1.2241800999 1
-20.7783275843 121.3337837458 -10.2637864911 1.2539573337 1
-19.0005515814 121.3337837458 -10.1171699501 1.2302486701 1
-17.2227755785 121.3337837458 -9.9301354144 0.862564628 1
-15.4449995756 121.3337837458 -10.4434536853 0.4347905719 1
-13.6672235727 121.3337837458 -10.7155069132 0.6525416954 1
-11.8894475698 121.3337837458 -10.1554285764 0.8914125314 1
-10.111671567 121.3337837458 -9.7233028486 0.8086333966 1
-8.3338955641 121.3337837458 -9.9505778183 0.7798484985 1
-6.5561195612 121.3337837458 -10.099942256 0.9203334639 1
-4.7783435583 121.3337837458 -10.0773648265 1.1800562393 1
-3.0005675554 121.3337837458 -9.7442779349 1.2404913512 1
-1.2227915525 121.3337837458 -9.5746386305 0.9710084592 1
0.5549844503 121.3337837458 -10.2759293592 0.8549338091 1
2.3327604532 121.3337837458 -10.3623441948 0.697703714 1
4.1105364561 121.3337837458 -9.957300786 0.7610556918 1
5.888312459 121.3337837458 -9.712948476 1.2356270443 1
7.6660884619 121.3337837458 -9.6898226128 1.1224248697 1
9.4438644648 121.3337837458 -9.574008576 0.9602760539 1
11.2216404676 121.3337837458 -10.0292902379 1.2300524941 1
12.9994164705 121.3337837458 0 -0 0
14.7771924734 121.3337837458 0 -0 0
16.5549684763 121.3337837458 0 -0 0
18.3327444792 121.3337837458 0 -0 0
20.1105204821 121.3337837458 0 -0 0
21.8882964849 121.3337837458 0 -0 0
23.6660724878 121.3337837458 0 -0 0
25.4438484907 121.3337837458 0 -0 0
27.2216244936 121.3337837458 0 -0 0
28.9994004965 121.3337837458 0 -0 0
30.7771764994 121.3337837458 0 -0 0
32.5549525023 121.3337837458 0 -0 0
34.3327285051 121.3337837458 0 -0 0
36.110504508 121.3337837458 -9.2187351752 0.3669064977 1
37.8882805109 121.3337837458 -9.0765762696 0.5758254029 1
39.6660565138 121.3337837458 -9.2672135714 0.5762850563 1
41.4438325167 121.3337837458 -9.4358977705 0.3441758504 1
43.2216085196 121.3337837458 -9.6426444198 0.0146774055 1
44.9993845224 121.3337837458 -9.6176856708 -0.4038477373 1
46.7771605253 121.3337837458 -9.4490902521 -0.2305168864 1
48.5549365282 121.3337837458 -9.5831314785 0.6341727435 1
50.3327125311 121.3337837458 -9.6410320531 0.361369178 1
52.110488534 121.3337837458 0 -0 0
53.8882645369 121.3337837458 0 -0 0
-125.6671117544 119.5560077429 0 -0 0
-123.8893357515 119.5560077429 -9.8379212137 0.1780204609 1
-122.1115597486 119.5560077429 -10.3191238895 -0.0170572931 1
-120.3337837458 119.5560077429 -10.4080761263 -0.4535203732 1
-118.5560077429 119.5560077429 -10.0774579027 -0.4068863182 1
-116.77823174 119.5560077429 -9.9878913628 -0.1697452681 1
-115.0004557371 119.5560077429 -10.1260150558 -0.3085333822 1
-113.2226797342 119.5560077429 -10.2297721409 -0.2981990568 1
-111.4449037313 119.5560077429 -10.3875535336 -0.264916429 1
-109.6671277285 119.5560077429 -10.4075634911 -0.301552665 1
-107.8893517256 119.5560077429 -10.3583290295 -0.2375462897 1
-106.1115757227 119.5560077429 -10.4226819347 -0.2014456 1
-104.3337997198 119.5560077429 -10.5434547865 -0.3518066693 1
-102.5560237169 119.5560077429 -10.5342574231 -0.3592241288 1
-100.778247714 119.5560077429 -10.7129909911 -0.3265386208 1
-99.0004717112 119.5560077429 -10.9176913953 -0.3020495488 1
-97.2226957083 119.5560077429 -10.9354890023 -0.1248710698 1
-95.4449197054 119.5560077429 -10.8422953533 -0.2638668155 1
-93.6671437025 119.5560077429 -10.7406074244 -0.2594449786 1
-91.8893676996 119.5560077429 -11.0599104424 0.001653893 1
-90.1115916967 119.5560077429 -11.2143038603 0.1362449851 1
-88.3338156939 119.5560077429 -10.6466405268 0.0891269337 1
-86.556039691 119.5560077429 -10.618441293 -0.0006730127 1
-84.7782636881 119.5560077429 -10.8834780052 -0.2079709597 1
-83.0004876852 119.5560077429 -10.9999192324 -0.0751612034 1
-81.2227116823 119.5560077429 -11.2622896686 0.2582894014 1
-79.4449356794 119.5560077429 -11.3213916425 0.2463613246 1
-77.6671596766 119.5560077429 -11.2688823295 0.0745268531 1
-75.8893836737 119.5560077429 -11.3881387548 -0.0301695859 1
-74.1116076708 119.5560077429 -10.936263683 0.1554630786 1
-72.3338316679 119.5560077429 -10.7877397952 0.2922522017 1
-70.556055665 119.5560077429 -10.8695910317 0.1365070305 1
-68.7782796621 119.5560077429 0 -0 0
-67.0005036592 119.5560077429 0 -0 0
-65.2227276564 119.5560077429 0 -0 0
-63.4449516535 119.5560077429 0 -0 0
-61.6671756506 119.5560077429 0 -0 0
-59.8893996477 119.5560077429 -11.149903701 0.8469550283 1
-58.1116236448 119.5560077429 -11.0857211969 0.7715876252 1
-56.3338476419 119.5560077429 -10.9165988235 0.3887292937 1
-54.5560716391 119.5560077429 -10.9814070863 0.6006151828 1
-52.7782956362 119.5560077429 -10.7969973002 0.9828549153 1
-51.0005196333 119.5560077429 -10.7969672295 1.0807252869 1
-49.2227436304 119.5560077429 -10.8929861 0.9545754929 1
-47.4449676275 119.5560077429 -10.8659009172 0.5747313993 1
-45.6671916246 119.5560077429 -11.0757076265 0.7217188132 1
-43.8894156218 119.5560077429 -11.014496402 1.0203159499 1
-42.1116396189 119.5560077429 -10.6856480587 1.1716478759 1
-40.333863616 119.5560077429 -10.6915720027 1.304978859 1
-38.5560876131 119.5560077429 -10.6498724199 1.1412835458 1
-36.7783116102 119.5560077429 -10.6210932496 0.9452907809 1
-35.0005356073 119.5560077429 -10.6016961633 1.0231812658 1
-33.2227596045 119.5560077429 -10.3813646803 1.2637604086 1
-31.4449836016 119.5560077429 -10.6080955121 1.3642440743 1
-29.6672075987 119.5560077429 -10.3902727915 0.113140601 1
-27.8894315958 119.5560077429 -10.0982783394 0.8090200209 1
-26.1116555929 119.5560077429 -10.1390471599 1.2969141617 1
-24.33387959 119.5560077429 -10.5849896961 1.3323046081 1
-22.5561035872 119.5560077429 -10.1689876351 0.8873758869 1
-20.7783275843 119.5560077429 -10.0615160925 1.0841590838 1
-19.0005515814 119.5560077429 -10.0556623136 1.1161558277 1
-17.2227755785 119.5560077429 -10.1940280048 1.1198301909 1
-15.4449995756 119.5560077429 -10.5117358394 0.8160436964 1
-13.6672235727 119.5560077429 -10.5691094593 0.8021624507 1
-11.8894475698 119.5560077429 -10.2698192627 1.132961099 1
-10.111671567 119.5560077429 -10.0138410157 0.9852734654 1
-8.3338955641 119.5560077429 -10.0381382075 0.7628713942 1
-6.5561195612 119.5560077429 -9.8819877967 1.0756032304 1
-4.7783435583 119.5560077429 -9.9404897869 1.3935186965 1
-3.0005675554 119.5560077429 -9.7820883633 1.2618659494 1
-1.2227915525 119.5560077429 -9.7183612167 0.97572814 1
0.5549844503 119.5560077429 -10.2734005497 0.7631806937 1
2.3327604532 119.5560077429 -10.1087171965 0.8960964137 1
4.1105364561 119.5560077429 -9.7418221544 1.2197067131 1
5.888312459 119.5560077429 -9.5584204555 0.9618526221 1
7.6660884619 119.5560077429 -9.4806574134 0.5537262421 1
9.4438644648 119.5560077429 -9.5970542505 0.5669573862 1
11.2216404676 119.5560077429 -9.8275868883 1.2354194127 1
12.9994164705 119.5560077429 0 -0 0
14.7771924734 119.5560077429 0 -0 0
16.5549684763 119.5560077429 0 -0 0
18.3327444792 119.5560077429 0 -0 0
20.1105204821 119.5560077429 0 -0 0
21.8882964849 119.5560077429 0 -0 0
23.6660724878 119.5560077429 0 -0 0
25.4438484907 119.5560077429 0 -0 0
27.2216244936 119.5560077429 0 -0 0
28.9994004965 119.5560077429 0 -0 0
30.7771764994 119.5560077429 0 -0 0
32.5549525023 119.5560077429 0 -0 0
34.3327285051 119.5560077429 0 -0 0
36.110504508 119.5560077429 -9.2039847407 0.5594626018 1
37.8882805109 119.5560077429 -9.2572042969 0.6870457697 1
39.6660565138 119.5560077429 -9.9955980747 0.4631988691 1
41.4438325167 119.5560077429 -9.4060976256 0.3879775241 1
43.2216085196 119.5560077429 -8.8511041149 0.015157106 1
44.9993845224 119.5560077429 -9.3434916896 0.4019117517 1
46.7771605253 119.5560077429 -9.2706588239 0.9262860468 1
48.5549365282 119.5560077429 -9.5162325804 0.8079174256 1
50.3327125311 119.5560077429 -9.6949418054 0.5369195389 1
52.110488534 119.5560077429 -9.392287977 0.6073539018 1
53.8882645369 119.5560077429 0 -0 0
-125.6671117544 117.77823174 0 -0 0
-123.8893357515 117.77823174 -10.0395357829 -0.0471753291 1
-122.1115597486 117.77823174 -10.3504390291 -0.0750294648 1
-120.3337837458 117.77823174 -10.1002959456 -0.3599988095 1
-118.5560077429 117.77823174 -9.6390373579 -0.4438203981 1
-116.77823174 117.77823174 -10.0300076408 -0.2727448559 1
-115.0004557371 117.77823174 -10.2161257337 -0.5194842132 1
-113.2226797342 117.77823174 -10.2488957263 -0.470977178 1
-111.4449037313 117.77823174 -10.1538906707 -0.1157352799 1
-109.6671277285 117.77823174 -10.0567777964 -0.121040625 1
-107.8893517256 117.77823174 -10.3555539259 -0.3211215843 1
-106.1115757227 117.77823174 -10.488219056 -0.4054643998 1
-104.3337997198 117.77823174 -10.3713654294 -0.3912452158 1
-102.5560237169 117.77823174 -10.3902828151 -0.2727792225 1
-100.778247714 117.77823174 -10.6026612922 -0.3117294767 1
-99.0004717112 117.77823174 -10.8909999965 -0.5477120857 1
-97.2226957083 117.77823174 -10.9042067975 -0.5309282936 1
-95.4449197054 117.77823174 -10.6305855931 -0.4314197804 1
-93.6671437025 117.77823174 -10.7427009236 -0.4275105788 1
-91.8893676996 117.77823174 -11.0949958852 -0.3394017558 1
-90.1115916967 117.77823174 -11.2072844807 -0.2202641817 1
-88.3338156939 117.77823174 -10.8898931053 -0.0099648844 1
-86.556039691 117.77823174 -10.696427718 -0.0279071176 1
-84.7782636881 117.77823174 -10.7607219137 -0.3049678466 1
-83.0004876852 117.77823174 -10.9838156128 0.0579564203 1
-81.2227116823 117.77823174 -11.2779880487 0.4002707462 1
-79.4449356794 117.77823174 -11.4011909061 0.3689412872 1
-77.6671596766 117.77823174 -11.3294992981 0.0416594885 1
-75.8893836737 117.77823174 -11.2790075914 -0.1474212924 1
-74.1116076708 117.77823174 -11.1071401852 -0.0416150983 1
-72.3338316679 117.77823174 -10.8356955327 0.2656997013 1
-70.556055665 117.77823174 -10.9374622184 0.0879498774 1
-68.7782796621 117.77823174 0 -0 0
-67.0005036592 117.77823174 0 -0 0
-65.2227276564 117.77823174 0 -0 0
-63.4449516535 117.77823174 0 -0 0
-61.6671756506 117.77823174 0 -0 0
-59.8893996477 117.77823174 -11.0091982166 0.7745574729 1
-58.1116236448 117.77823174 -10.9378015887 0.4874359194 1
-56.3338476419 117.77823174 -10.6520876341 0.3492907472 1
-54.5560716391 117.77823174 -10.7072446079 0.713675595 1
-52.7782956362 117.77823174 -10.6351692394 0.9603175803 1
-51.0005196333 117.77823174 -10.951791662 0.8757170152 1
-49.2227436304 117.77823174 -10.8753503024 0.6822859945 1
-47.4449676275 117.77823174 -10.5312804157 0.5104644105 1
-45.6671916246 117.77823174 -10.7210685759 0.6136301036 1
-43.8894156218 117.77823174 -10.7334720575 0.7268895558 1
-42.1116396189 117.77823174 -10.4231559075 0.7814050195 1
-40.333863616 117.77823174 -10.3170933958 0.5470720077 1
-38.5560876131 117.77823174 -10.4186696332 0.6274139772 1
-36.7783116102 117.77823174 -10.569907051 0.6468883884 1
-35.0005356073 117.77823174 -10.4556037131 0.8580511468 1
-33.2227596045 117.77823174 -9.9873572485 1.4445416537 1
-31.4449836016 117.77823174 -10.272823477 1.6243663615 1
-29.6672075987 117.77823174 -10.0974019909 0.9068288189 1
-27.8894315958 117.77823174 -10.2330584478 0.6076431541 1
-26.1116555929 117.77823174 -10.4071525237 0.6333493768 1
-24.33387959 117.77823174 -10.7100182795 0.3023688719 1
-22.5561035872 117.77823174 -10.4210810235 0.6140768695 1
-20.7783275843 117.77823174 -10.6244282425 1.0745106586 1
-19.0005515814 117.77823174 -10.5575551194 0.9911429956 1
-17.2227755785 117.77823174 -10.2189466594 0.9240235784 1
-15.4449995756 117.77823174 -10.009686952 0.92536674 1
-13.6672235727 117.77823174 -10.2113330238 0.923983484 1
-11.8894475698 117.77823174 -10.3251437737 1.1849935753 1
-10.111671567 117.77823174 -10.1529011987 1.069093622 1
-8.3338955641 117.77823174 -10.1971768453 1.0090594539 1
-6.5561195612 117.77823174 -10.3979150659 1.1679878321 1