TITLE = "B00086"
VARIABLES = "x", "y", "Vx", "Vy", "isValid"
ZONE T="Frame 0", I=102, J=78, F=POINT
-125.6671117544 126.6671117544 0 -0 0
-123.8893357515 126.6671117544 0 -0 0
-122.1115597486 126.6671117544 0 -0 0
-120.3337837458 126.6671117544 0 -0 0
-118.5560077429 126.6671117544 0 -0 0
-116.77823174 126.6671117544 0 -0 0
-115.0004557371 126.6671117544 0 -0 0
-113.2226797342 126.6671117544 0 -0 0
-111.4449037313 126.6671117544 0 -0 0
-109.6671277285 126.6671117544 0 -0 0
-107.8893517256 126.6671117544 0 -0 0
-106.1115757227 126.6671117544 0 -0 0
-104.3337997198 126.6671117544 0 -0 0
-102.5560237169 126.6671117544 0 -0 0
-100.778247714 126.6671117544 0 -0 0
-99.0004717112 126.6671117544 0 -0 0
-97.2226957083 126.6671117544 0 -0 0
-95.4449197054 126.6671117544 0 -0 0
-93.6671437025 126.6671117544 0 -0 0
-91.8893676996 126.6671117544 0 -0 0
-90.1115916967 126.6671117544 0 -0 0
-88.3338156939 126.6671117544 0 -0 0
-86.556039691 126.6671117544 0 -0 0
-84.7782636881 126.6671117544 0 -0 0
-83.0004876852 126.6671117544 0 -0 0
-81.2227116823 126.6671117544 0 -0 0
-79.4449356794 126.6671117544 0 -0 0
-77.6671596766 126.6671117544 0 -0 0
-75.8893836737 126.6671117544 0 -0 0
-74.1116076708 126.6671117544 0 -0 0
-72.3338316679 126.6671117544 0 -0 0
-70.556055665 126.6671117544 0 -0 0
-68.7782796621 126.6671117544 0 -0 0
-67.0005036592 126.6671117544 0 -0 0
-65.2227276564 126.6671117544 0 -0 0
-63.4449516535 126.6671117544 0 -0 0
-61.6671756506 126.6671117544 0 -0 0
-59.8893996477 126.6671117544 0 -0 0
-58.1116236448 126.6671117544 0 -0 0
-56.3338476419 126.6671117544 0 -0 0
-54.5560716391 126.6671117544 0 -0 0
-52.7782956362 126.6671117544 0 -0 0
-51.0005196333 126.6671117544 0 -0 0
-49.2227436304 126.6671117544 0 -0 0
-47.4449676275 126.6671117544 0 -0 0
-45.6671916246 126.6671117544 0 -0 0
-43.8894156218 126.6671117544 0 -0 0
-42.1116396189 126.6671117544 0 -0 0
-40.333863616 126.6671117544 0 -0 0
-38.5560876131 126.6671117544 0 -0 0
-36.7783116102 126.6671117544 0 -0 0
-35.0005356073 126.6671117544 0 -0 0
-33.2227596045 126.6671117544 0 -0 0
-31.4449836016 126.6671117544 0 -0 0
-29.6672075987 126.6671117544 0 -0 0
-27.8894315958 126.6671117544 0 -0 0
-26.1116555929 126.6671117544 0 -0 0
-24.33387959 126.6671117544 0 -0 0
-22.5561035872 126.6671117544 0 -0 0
-20.7783275843 126.6671117544 0 -0 0
-19.0005515814 126.6671117544 0 -0 0
-17.2227755785 126.6671117544 0 -0 0
-15.4449995756 126.6671117544 0 -0 0
-13.6672235727 126.6671117544 0 -0 0
-11.8894475698 126.6671117544 0 -0 0
-10.111671567 126.6671117544 0 -0 0
-8.3338955641 126.6671117544 0 -0 0
-6.5561195612 126.6671117544 0 -0 0
-4.7783435583 126.6671117544 0 -0 0
-3.0005675554 126.6671117544 0 -0 0
-1.2227915525 126.6671117544 0 -0 0
0.5549844503 126.6671117544 0 -0 0
2.3327604532 126.6671117544 0 -0 0
4.1105364561 126.6671117544 0 -0 0
5.888312459 126.6671117544 0 -0 0
7.6660884619 126.6671117544 0 -0 0
9.4438644648 126.6671117544 0 -0 0
11.2216404676 126.6671117544 0 -0 0
12.9994164705 126.6671117544 0 -0 0
14.7771924734 126.6671117544 0 -0 0
16.5549684763 126.6671117544 0 -0 0
18.3327444792 126.6671117544 0 -0 0
20.1105204821 126.6671117544 0 -0 0
21.8882964849 126.6671117544 0 -0 0
23.6660724878 126.6671117544 0 -0 0
25.4438484907 126.6671117544 0 -0 0
27.2216244936 126.6671117544 0 -0 0
28.9994004965 126.6671117544 0 -0 0
30.7771764994 126.6671117544 0 -0 0
32.5549525023 126.6671117544 0 -0 0
34.3327285051 126.6671117544 0 -0 0
36.110504508 126.6671117544 0 -0 0
37.8882805109 126.6671117544 0 -0 0
39.6660565138 126.6671117544 0 -0 0
41.4438325167 126.6671117544 0 -0 0
43.2216085196 126.6671117544 0 -0 0
44.9993845224 126.6671117544 0 -0 0
46.7771605253 126.6671117544 0 -0 0
48.5549365282 126.6671117544 0 -0 0
50.3327125311 126.6671117544 0 -0 0
52.110488534 126.6671117544 0 -0 0
53.8882645369 126.6671117544 0 -0 0
-125.6671117544 124.8893357515 0 -0 0
-123.8893357515 124.8893357515 -10.3639150352 -0.0123161331 1
-122.1115597486 124.8893357515 -10.3788945804 -0.0292946694 1
-120.3337837458 124.8893357515 -10.0787767213 0.0189073621 1
-118.5560077429 124.8893357515 -9.9706665326 0.1424825244 1
-116.77823174 124.8893357515 -10.2338760867 0.0525565671 1
-115.0004557371 124.8893357515 -10.3077413826 -0.0660655079 1
-113.2226797342 124.8893357515 -10.3350184457 0.002344089 1
-111.4449037313 124.8893357515 -10.2084605482 0.0395087116 1
-109.6671277285 124.8893357515 -10.2089574321 -0.1406138401 1
-107.8893517256 124.8893357515 -10.4358443455 -0.2430449469 1
-106.1115757227 124.8893357515 -10.3486977876 -0.1424266787 1
-104.3337997198 124.8893357515 -10.4865551394 -0.2348255999 1
-102.5560237169 124.8893357515 -10.5820255761 -0.2245242092 1
-100.778247714 124.8893357515 -10.628686838 -0.2208068877 1
-99.0004717112 124.8893357515 -10.3140061288 -0.136643065 1
-97.2226957083 124.8893357515 -10.8597192236 -0.0592637834 1
-95.4449197054 124.8893357515 -10.7818387623 -0.0969482009 1
-93.6671437025 124.8893357515 -10.5780891676 -0.1334985204 1
-91.8893676996 124.8893357515 -10.4816349867 -0.2064974914 1
-90.1115916967 124.8893357515 -10.4933325208 -0.0437100294 1
-88.3338156939 124.8893357515 -10.4833662045 0.0769439712 1
-86.556039691 124.8893357515 -10.4612427007 0.2131001759 1
-84.7782636881 124.8893357515 -10.7830745282 -0.0511231931 1
-83.0004876852 124.8893357515 -10.8565216971 -0.1026602175 1
-81.2227116823 124.8893357515 -10.9573046386 0.2165855227 1
-79.4449356794 124.8893357515 -10.8739942533 0.1795340236 1
-77.6671596766 124.8893357515 -10.8172936461 0.1458031979 1
-75.8893836737 124.8893357515 -10.7912050949 0.0843399516 1
-74.1116076708 124.8893357515 -10.8331552676 0.0381354792 1
-72.3338316679 124.8893357515 -10.7712080249 0.0738896389 1
-70.556055665 124.8893357515 -11.1599043839 0.3701126158 1
-68.7782796621 124.8893357515 0 -0 0
-67.0005036592 124.8893357515 0 -0 0
-65.2227276564 124.8893357515 0 -0 0
-63.4449516535 124.8893357515 0 -0 0
-61.6671756506 124.8893357515 0 -0 0
-59.8893996477 124.8893357515 -10.4890939725 1.0049039582 1
-58.1116236448 124.8893357515 -10.9115812988 0.9328300217 1
-56.3338476419 124.8893357515 -10.3908727752 0.6829633031 1
-54.5560716391 124.8893357515 -10.5273067766 0.4399069006 1
-52.7782956362 124.8893357515 -10.6575590845 0.2479837149 1
-51.0005196333 124.8893357515 -10.3653570008 0.2755099359 1
-49.2227436304 124.8893357515 -10.4591420418 0.8134103551 1
-47.4449676275 124.8893357515 -10.359921349 1.1241360404 1
-45.6671916246 124.8893357515 -10.5280069963 0.7636446429 1
-43.8894156218 124.8893357515 -10.5463845399 0.4151729665 1
-42.1116396189 124.8893357515 -10.4688076503 0.5958654312 1
-40.333863616 124.8893357515 -10.2809597715 1.1299654763 1
-38.5560876131 124.8893357515 -10.0685025375 1.117110933 1
-36.7783116102 124.8893357515 -10.2735523355 0.7138803627 1
-35.0005356073 124.8893357515 -10.3779996167 0.4329777333 1
-33.2227596045 124.8893357515 -10.5240562683 0.3891116222 1
-31.4449836016 124.8893357515 -10.8356267995 0.5002718474 1
-29.6672075987 124.8893357515 -10.7945257684 0.7438093824 1
-27.8894315958 124.8893357515 -10.9346756593 0.6215315595 1
-26.1116555929 124.8893357515 -11.1151146702 0.6128568549 1
-24.33387959 124.8893357515 -10.7875951691 1.2241686444 1
-22.5561035872 124.8893357515 -10.3735577326 0.9206628106 1
-20.7783275843 124.8893357515 -10.1890978285 0.8399929263 1
-19.0005515814 124.8893357515 -10.3473417385 0.8384120623 1
-17.2227755785 124.8893357515 -10.27971255 0.5998877562 1
-15.4449995756 124.8893357515 -9.785774182 0.8255789981 1
-13.6672235727 124.8893357515 -10.061206793 0.7241960729 1
-11.8894475698 124.8893357515 -10.2595794455 0.6736986384 1
-10.111671567 124.8893357515 -10.1882415272 1.0186735124 1
-8.3338955641 124.8893357515 -10.1173475109 1.3392294796 1
-6.5561195612 124.8893357515 -10.4927382649 1.691281011 1
-4.7783435583 124.8893357515 -10.4696983182 1.1125244228 1
-3.0005675554 124.8893357515 -10.4879541467 0.7711279718 1
-1.2227915525 124.8893357515 -10.1010233722 0.9623452101 1
0.5549844503 124.8893357515 -10.0136305202 0.9566518087 1
2.3327604532 124.8893357515 -10.0351783834 0.8983961125 1
4.1105364561 124.8893357515 -10.2269956054 1.3339670928 1
5.888312459 124.8893357515 0 -0 0
7.6660884619 124.8893357515 -10.241718833 1.1275827248 1
9.4438644648 124.8893357515 -9.9183963539 0.8802734546 1
11.2216404676 124.8893357515 -9.8334979449 0.6371440231 1
12.9994164705 124.8893357515 0 -0 0
14.7771924734 124.8893357515 0 -0 0
16.5549684763 124.8893357515 0 -0 0
18.3327444792 124.8893357515 0 -0 0
20.1105204821 124.8893357515 0 -0 0
21.8882964849 124.8893357515 0 -0 0
23.6660724878 124.8893357515 0 -0 0
25.4438484907 124.8893357515 0 -0 0
27.2216244936 124.8893357515 0 -0 0
28.9994004965 124.8893357515 0 -0 0
30.7771764994 124.8893357515 0 -0 0
32.5549525023 124.8893357515 0 -0 0
34.3327285051 124.8893357515 0 -0 0
36.110504508 124.8893357515 -9.802315976 0.8461746199 1
37.8882805109 124.8893357515 -9.6698126553 0.5233962787 1
39.6660565138 124.8893357515 -9.4620206884 0.3866887763 1
41.4438325167 124.8893357515 -9.0028856706 0.4992064826 1
43.2216085196 124.8893357515 -9.2278208471 0.8839034276 1
44.9993845224 124.8893357515 -9.2399923541 0.59836417 1
46.7771605253 124.8893357515 -9.4740189303 0.0677380161 1
48.5549365282 124.8893357515 -9.3321979631 -0.1423421941 1
50.3327125311 124.8893357515 -9.4059071774 -0.0788556138 1
52.110488534 124.8893357515 -9.2916697088 0.4021594777 1
53.8882645369 124.8893357515 0 -0 0
-125.6671117544 123.1115597486 0 -0 0
-123.8893357515 123.1115597486 -9.7943873131 0.2295861241 1
-122.1115597486 123.1115597486 -9.9195848657 0.3501284333 1
-120.3337837458 123.1115597486 -10.0825212496 0.1836651762 1
-118.5560077429 123.1115597486 -10.0876690811 -0.0613028688 1
-116.77823174 123.1115597486 -10.0067829736 -0.0518720988 1
-115.0004557371 123.1115597486 -10.164497065 -0.0126096812 1
-113.2226797342 123.1115597486 -10.344837272 0.031055958 1
-111.4449037313 123.1115597486 -10.435585164 0.1086514628 1
-109.6671277285 123.1115597486 -10.5017179732 0.0650903554 1
-107.8893517256 123.1115597486 -10.7158777862 -0.0258623044 1
-106.1115757227 123.1115597486 -10.7195177827 -0.1181094397 1
-104.3337997198 123.1115597486 -10.5757250314 -0.1221303328 1
-102.5560237169 123.1115597486 -10.5322870709 -0.2425523589 1
-100.778247714 123.1115597486 -10.4188457621 -0.2989479625 1
-99.0004717112 123.1115597486 -10.4918919872 -0.1918114943 1
-97.2226957083 123.1115597486 -10.8773965475 -0.0570829357 1
-95.4449197054 123.1115597486 -10.7130969548 -0.1890378226 1
-93.6671437025 123.1115597486 -10.6455364995 -0.3448230882 1
-91.8893676996 123.1115597486 -11.0145250408 -0.4073388119 1
-90.1115916967 123.1115597486 -11.0991413572 -0.1848107298 1
-88.3338156939 123.1115597486 -10.7628798502 0.0711818366 1
-86.556039691 123.1115597486 -10.5348860456 0.2181534992 1
-84.7782636881 123.1115597486 -10.9056774019 0.2569204649 1
-83.0004876852 123.1115597486 -10.8394844512 -0.0499575924 1
-81.2227116823 123.1115597486 -11.0560885892 0.1543218209 1
-79.4449356794 123.1115597486 -10.8731365201 0.4201589886 1
-77.6671596766 123.1115597486 -11.1058213667 0.4199714041 1
-75.8893836737 123.1115597486 -11.1146421294 0.1490565701 1
-74.1116076708 123.1115597486 -10.7615996941 0.0056590348 1
-72.3338316679 123.1115597486 -10.5810260806 0.2432740577 1
-70.556055665 123.1115597486 -10.9189701195 0.5594053241 1
-68.7782796621 123.1115597486 0 -0 0
-67.0005036592 123.1115597486 0 -0 0
-65.2227276564 123.1115597486 0 -0 0
-63.4449516535 123.1115597486 0 -0 0
-61.6671756506 123.1115597486 0 -0 0
-59.8893996477 123.1115597486 -10.878099631 0.481668057 1
-58.1116236448 123.1115597486 -10.6330256223 0.5786549203 1
-56.3338476419 123.1115597486 -10.5707046427 0.6220313073 1
-54.5560716391 123.1115597486 -10.6842963054 0.545435298 1
-52.7782956362 123.1115597486 -10.6392402505 0.4239794098 1
-51.0005196333 123.1115597486 -10.5005194377 0.632258237 1
-49.2227436304 123.1115597486 -10.5582610668 0.93578555 1
-47.4449676275 123.1115597486 -10.5075087466 1.144316399 1
-45.6671916246 123.1115597486 -10.7158362598 0.8634681834 1
-43.8894156218 123.1115597486 -10.8350397033 0.7701943456 1
-42.1116396189 123.1115597486 -10.8663863455 0.6468769328 1
-40.333863616 123.1115597486 -10.4813958524 0.9054283797 1
-38.5560876131 123.1115597486 -10.2702230704 1.1155644356 1
-36.7783116102 123.1115597486 -10.7672043151 0.9005411616 1
-35.0005356073 123.1115597486 -10.4857546838 0.5990085439 1
-33.2227596045 123.1115597486 -10.3243132473 0.522425422 1
-31.4449836016 123.1115597486 -10.6974229177 0.4947073208 1
-29.6672075987 123.1115597486 -10.9128514313 0.2813980814 1
-27.8894315958 123.1115597486 -10.7031879162 0.6029864787 1
-26.1116555929 123.1115597486 -10.6264143461 1.0143375921 1
-24.33387959 123.1115597486 -10.3858294755 1.4221160101 1
-22.5561035872 123.1115597486 -10.0779519227 0.8708111819 1
-20.7783275843 123.1115597486 -9.8537341492 0.6684477071 1
-19.0005515814 123.1115597486 -10.2561012584 0.8422425071 1
-17.2227755785 123.1115597486 -10.2798743594 0.820127595 1
-15.4449995756 123.1115597486 -9.900568676 0.9354060854 1
-13.6672235727 123.1115597486 -9.9990018008 1.0027803882 1
-11.8894475698 123.1115597486 -10.2150718244 0.7248404468 1
-10.111671567 123.1115597486 -10.1774532762 1.0050285371 1
-8.3338955641 123.1115597486 -10.1023593741 1.2942579093 1
-6.5561195612 123.1115597486 -10.1650354752 1.1642490316 1
-4.7783435583 123.1115597486 -10.6268296093 1.2283885775 1
-3.0005675554 123.1115597486 -10.7123838477 0.9228751609 1
-1.2227915525 123.1115597486 -10.081425814 0.7881193955 1
0.5549844503 123.1115597486 -9.750670124 0.8139731083 1
2.3327604532 123.1115597486 -9.955250245 0.8313898188 1
4.1105364561 123.1115597486 -10.0068130444 1.2405071026 1
5.888312459 123.1115597486 -10.1839542929 1.1559967498 1
7.6660884619 123.1115597486 -10.0538437473 0.9016151181 1
9.4438644648 123.1115597486 -9.7211993258 0.9506977939 1
11.2216404676 123.1115597486 -9.7931501152 0.9609633861 1
12.9994164705 123.1115597486 0 -0 0
14.7771924734 123.1115597486 0 -0 0
16.5549684763 123.1115597486 0 -0 0
18.3327444792 123.1115597486 0 -0 0
20.1105204821 123.1115597486 0 -0 0
21.8882964849 123.1115597486 0 -0 0
23.6660724878 123.1115597486 0 -0 0
25.4438484907 123.1115597486 0 -0 0
27.2216244936 123.1115597486 0 -0 0
28.9994004965 123.1115597486 0 -0 0
30.7771764994 123.1115597486 0 -0 0
32.5549525023 123.1115597486 0 -0 0
34.3327285051 123.1115597486 0 -0 0
36.110504508 123.1115597486 -9.26986696 0.0697957168 1
37.8882805109 123.1115597486 -9.621013504 0.2222717644 1
39.6660565138 123.1115597486 -9.7339464734 0.3637447697 1
41.4438325167 123.1115597486 -9.5267802651 0.3246398658 1
43.2216085196 123.1115597486 -9.3529496665 0.4246237837 1
44.9993845224 123.1115597486 -9.6046907972 0.6461065481 1
46.7771605253 123.1115597486 -9.6505702188 0.4062118735 1
48.5549365282 123.1115597486 -9.6103612875 0.4623110651 1
50.3327125311 123.1115597486 -9.5879385078 0.4453697593 1
52.110488534 123.1115597486 -9.3611704455 1.0968231788 1
53.8882645369 123.1115597486 0 -0 0
-125.6671117544 121.3337837458 0 -0 0
-123.8893357515 121.3337837458 -9.4391912371 0.1872493271 1
-122.1115597486 121.3337837458 -9.8195064396 0.3983233051 1
-120.3337837458 121.3337837458 -10.1201899158 0.2047705693 1
-118.5560077429 121.3337837458 -10.1519260463 -0.1140026301 1
-116.77823174 121.3337837458 -9.9582444357 -0.2048063679 1
-115.0004557371 121.3337837458 -10.2236248139 -0.0973505766 1
-113.2226797342 121.3337837458 -10.4140057981 0.0155738011 1
-111.4449037313 121.3337837458 -10.5056815886 0.1309740066 1
-109.6671277285 121.3337837458 -10.6538804255 0.0706692014 1
-107.8893517256 121.3337837458 -10.8163385408 0.0248971755 1
-106.1115757227 121.3337837458 -10.7327632462 0.0106608082 1
-104.3337997198 121.3337837458 -10.737039025 -0.1530760313 1
-102.5560237169 121.3337837458 -10.4814903605 -0.3704405305 1
-100.778247714 121.3337837458 -10.4066398885 -0.2925729567 1
-99.0004717112 121.3337837458 -10.6704164917 -0.232896774 1
-97.2226957083 121.3337837458 -10.6885577648 -0.2259017374 1
-95.4449197054 121.3337837458 -10.5411164253 -0.3133805058 1
-93.6671437025 121.3337837458 -10.7354610249 -0.3837232245 1
-91.8893676996 121.3337837458 -10.9788138394 -0.1789540871 1
-90.1115916967 121.3337837458 -11.1837018279 0.0351856787 1
-88.3338156939 121.3337837458 -10.9334441892 0.0465624579 1
-86.556039691 121.3337837458 -10.4904614771 -0.0333714082 1
-84.7782636881 121.3337837458 -10.6682041413 0.1082304719 1
-83.0004876852 121.3337837458 -11.0539392443 0.1285669121 1
-81.2227116823 121.3337837458 -11.3550150725 0.0848096286 1
-79.4449356794 121.3337837458 -11.1637462843 0.315154682 1
-77.6671596766 121.3337837458 -11.1296760884 0.4164244838 1
-75.8893836737 121.3337837458 -10.9756234726 0.1957650861 1
-74.1116076708 121.3337837458 -10.9568779199 0.1258404946 1
-72.3338316679 121.3337837458 -10.7998712078 0.3382934327 1
-70.556055665 121.3337837458 -10.9738979825 0.4998537203 1
-68.7782796621 121.3337837458 0 -0 0
-67.0005036592 121.3337837458 0 -0 0
-65.2227276564 121.3337837458 0 -0 0
-63.4449516535 121.3337837458 0 -0 0
-61.6671756506 121.3337837458 0 -0 0
-59.8893996477 121.3337837458 -10.8672727176 0.0934327833 1
-58.1116236448 121.3337837458 -10.7392886059 0.2519416026 1
-56.3338476419 121.3337837458 -11.0039859477 0.5773074629 1
-54.5560716391 121.3337837458 -10.8858593247 0.811139295 1
-52.7782956362 121.3337837458 -10.6320848364 0.8079031061 1
-51.0005196333 121.3337837458 -10.4231544756 0.6745807146 1
-49.2227436304 121.3337837458 -10.5724401564 0.9020174938 1
-47.4449676275 121.3337837458 -10.4994125466 1.0030739363 1
-45.6671916246 121.3337837458 -10.6815584323 0.8487234766 1
-43.8894156218 121.3337837458 -10.9681258243 0.7198100345 1
-42.1116396189 121.3337837458 -10.9692728098 0.4218701592 1
-40.333863616 121.3337837458 -10.7251424509 0.7814809124 1
-38.5560876131 121.3337837458 -10.6829832146 1.3129204093 1
-36.7783116102 121.3337837458 -10.8098776185 1.0403745934 1
-35.0005356073 121.3337837458 -10.5510297597 0.7167829092 1
-33.2227596045 121.3337837458 -10.5212152954 0.9100707356 1
-31.4449836016 121.3337837458 -10.4029082477 0.8670480383 1
-29.6672075987 121.3337837458 -10.4705374362 0.9099590441 1
-27.8894315958 121.3337837458 -10.4156339162 1.2102158016 1
-26.1116555929 121.3337837458 -10.5297024156 1.3070709263 1
-24.33387959 121.3337837458 -11.2742922064 0.8102071008 1
-22.5561035872 121.3337837458 -9.9124094044 1.223363893 1
-20.7783275843 121.3337837458 -9.6519663622 0.9504028139 1
-19.0005515814 121.3337837458 -10.1705155172 0.904209797 1
-17.2227755785 121.3337837458 -10.2657539794 0.9831871259 1
-15.4449995756 121.3337837458 -9.937624471 1.1767327019 1
-13.6672235727 121.3337837458 -10.0283408603 0.9422736792 1
-11.8894475698 121.3337837458 -10.2172870387 0.746338192 1
-10.111671567 121.3337837458 -9.9054616218 0.9116143691 1
-8.3338955641 121.3337837458 -9.8735708416 0.8321874104 1
-6.5561195612 121.3337837458 -10.0795814727 0.7630045648 1
-4.7783435583 121.3337837458 -10.5354402072 1.1387103461 1
-3.0005675554 121.3337837458 -10.2852212308 1.3937692864 1
-1.2227915525 121.3337837458 -9.9457006239 1.4095321038 1
0.5549844503 121.3337837458 -9.7521579117 1.0399321233 1
2.3327604532 121.3337837458 -9.9862732684 0.7750443332 1
4.1105364561 121.3337837458 -9.9663692746 0.8570960415 1
5.888312459 121.3337837458 -9.9206330473 0.8424172041 1
7.6660884619 121.3337837458 -9.8831362142 0.9327713121 1
9.4438644648 121.3337837458 -9.7716308909 1.1037595058 1
11.2216404676 121.3337837458 -10.2114046209 1.0740767802 1
12.9994164705 121.3337837458 0 -0 0
14.7771924734 121.3337837458 0 -0 0
16.5549684763 121.3337837458 0 -0 0
18.3327444792 121.3337837458 0 -0 0
20.1105204821 121.3337837458 0 -0 0
21.8882964849 121.3337837458 0 -0 0
23.6660724878 121.3337837458 0 -0 0
25.4438484907 121.3337837458 0 -0 0
27.2216244936 121.3337837458 0 -0 0
28.9994004965 121.3337837458 0 -0 0
30.7771764994 121.3337837458 0 -0 0
32.5549525023 121.3337837458 0 -0 0
34.3327285051 121.3337837458 0 -0 0
36.110504508 121.3337837458 -9.4457266204 0.2322781751 1
37.8882805109 121.3337837458 -9.9259942381 0.2133751088 1
39.6660565138 121.3337837458 -10.1660120597 0.4025661492 1
41.4438325167 121.3337837458 -9.9042888613 0.2902131163 1
43.2216085196 121.3337837458 -9.8433826405 0.3540720015 1
44.9993845224 121.3337837458 -10.0696280439 0.3535063845 1
46.7771605253 121.3337837458 -9.8907498498 0.4808260751 1
48.5549365282 121.3337837458 -9.7150405432 0.7941822379 1
50.3327125311 121.3337837458 -9.6224855404 0.9325064028 1
52.110488534 121.3337837458 -9.561344481 0.6746895422 1
53.8882645369 121.3337837458 0 -0 0
-125.6671117544 119.5560077429 0 -0 0
-123.8893357515 119.5560077429 -9.8791095933 0.1064090417 1
-122.1115597486 119.5560077429 -9.9813602754 0.1370268254 1
-120.3337837458 119.5560077429 -9.9424859141 0.0737779475 1
-118.5560077429 119.5560077429 -9.9677840333 -0.2002656798 1
-116.77823174 119.5560077429 -10.0596932303 -0.3160525096 1
-115.0004557371 119.5560077429 -10.2013652756 -0.1821244067 1
-113.2226797342 119.5560077429 -10.1474068373 -0.147651835 1
-111.4449037313 119.5560077429 -10.2546621567 -0.0890582005 1
-109.6671277285 119.5560077429 -10.5136302986 0.0445949696 1
-107.8893517256 119.5560077429 -10.6882198265 0.0716099873 1
-106.1115757227 119.5560077429 -10.641648777 -0.2025582189 1
-104.3337997198 119.5560077429 -10.7192943998 -0.3722590968 1
-102.5560237169 119.5560077429 -10.7867932816 -0.4486231315 1
-100.778247714 119.5560077429 -10.7971304708 -0.4281792957 1
-99.0004717112 119.5560077429 -10.7663021916 -0.3092192824 1
-97.2226957083 119.5560077429 -10.7048518328 -0.4021637735 1
-95.4449197054 119.5560077429 -10.5702449893 -0.3146649578 1
-93.6671437025 119.5560077429 -10.7608149899 -0.0178820916 1
-91.8893676996 119.5560077429 -11.161161629 0.0307752974 1
-90.1115916967 119.5560077429 -11.2208521311 -0.061990201 1
-88.3338156939 119.5560077429 -11.0565926328 -0.2150161143 1
-86.556039691 119.5560077429 -10.8557928386 -0.2733634548 1
-84.7782636881 119.5560077429 -10.6644495894 -0.1246061606 1
-83.0004876852 119.5560077429 -11.0427285704 0.0698945208 1
-81.2227116823 119.5560077429 -11.2763985931 -0.1008173082 1
-79.4449356794 119.5560077429 -11.1790494484 -0.1009733899 1
-77.6671596766 119.5560077429 -10.8708611642 0.299898772 1
-75.8893836737 119.5560077429 -10.5725933742 0.3240742487 1
-74.1116076708 119.5560077429 -10.8597879568 0.2921519658 1
-72.3338316679 119.5560077429 -10.996524098 0.2749428868 1
-70.556055665 119.5560077429 -11.0450382928 0.2743400393 1
-68.7782796621 119.5560077429 0 -0 0
-67.0005036592 119.5560077429 0 -0 0
-65.2227276564 119.5560077429 0 -0 0
-63.4449516535 119.5560077429 0 -0 0
-61.6671756506 119.5560077429 0 -0 0
-59.8893996477 119.5560077429 -10.9087718286 0.3694582183 1
-58.1116236448 119.5560077429 -10.8417240085 0.3405387177 1
-56.3338476419 119.5560077429 -11.0443108663 0.5329874262 1
-54.5560716391 119.5560077429 -10.90730552 0.7690015379 1
-52.7782956362 119.5560077429 -10.6889816197 0.8408449318 1
-51.0005196333 119.5560077429 -10.6734894392 0.8236057821 1
-49.2227436304 119.5560077429 -10.5749030966 0.8337253162 1
-47.4449676275 119.5560077429 -10.5487701552 0.6949672728 1
-45.6671916246 119.5560077429 -10.7444822595 0.6406666004 1
-43.8894156218 119.5560077429 -10.8545227061 0.7871012848 1
-42.1116396189 119.5560077429 -10.750615267 0.7441487526 1
-40.333863616 119.5560077429 -10.57713979 1.004043361 1
-38.5560876131 119.5560077429 -10.3239423744 1.2594617188 1
-36.7783116102 119.5560077429 -10.2396568365 0.8453455254 1
-35.0005356073 119.5560077429 -10.2690703571 0.9467728409 1
-33.2227596045 119.5560077429 -10.2865944632 1.3141561753 1
-31.4449836016 119.5560077429 -10.2116308678 1.2191482558 1
-29.6672075987 119.5560077429 -10.5504355038 1.0978971353 1
-27.8894315958 119.5560077429 -10.5778486013 1.2867989234 1
-26.1116555929 119.5560077429 -10.6722980635 1.198110164 1
-24.33387959 119.5560077429 -10.5272838656 0.784132869 1
-22.5561035872 119.5560077429 -9.966310565 0.7401350192 1
-20.7783275843 119.5560077429 -9.7389554065 1.0582108629 1
-19.0005515814 119.5560077429 -10.1498697775 1.0676645439 1
-17.2227755785 119.5560077429 -10.1488430751 0.9782898842 1
-15.4449995756 119.5560077429 -10.0373964615 0.8239680634 1
-13.6672235727 119.5560077429 -10.1767015067 0.9237901719 1
-11.8894475698 119.5560077429 -10.2686393425 1.1127950598 1
-10.111671567 119.5560077429 -10.141389817 1.1277660134 1
-8.3338955641 119.5560077429 -9.6498957741 1.1380344694 1
-6.5561195612 119.5560077429 -10.0134200247 0.8654056009 1
-4.7783435583 119.5560077429 -10.4431801844 1.0082475427 1
-3.0005675554 119.5560077429 -10.1552796544 1.3100823003 1
-1.2227915525 119.5560077429 -9.8408438073 1.1325988176 1
0.5549844503 119.5560077429 -9.80320378 0.6272392803 1
2.3327604532 119.5560077429 -9.6586148689 0.7484445786 1
4.1105364561 119.5560077429 -9.8024720576 0.8128361463 1
5.888312459 119.5560077429 -9.9721514564 0.8251594391 1
7.6660884619 119.5560077429 -9.765036798 0.7661491095 1
9.4438644648 119.5560077429 -9.3899238408 0.8321960021 1
11.2216404676 119.5560077429 -10.1359269583 0.5791475084 1
12.9994164705 119.5560077429 0 -0 0
14.7771924734 119.5560077429 0 -0 0
16.5549684763 119.5560077429 0 -0 0
18.3327444792 119.5560077429 0 -0 0
20.1105204821 119.5560077429 0 -0 0
21.8882964849 119.5560077429 0 -0 0
23.6660724878 119.5560077429 0 -0 0
25.4438484907 119.5560077429 0 -0 0
27.2216244936 119.5560077429 0 -0 0
28.9994004965 119.5560077429 0 -0 0
30.7771764994 119.5560077429 0 -0 0
32.5549525023 119.5560077429 0 -0 0
34.3327285051 119.5560077429 0 -0 0
36.110504508 119.5560077429 -10.4064480083 0.7587330819 1
37.8882805109 119.5560077429 -10.6022789637 0.3691976049 1
39.6660565138 119.5560077429 0 -0 0
41.4438325167 119.5560077429 -9.6683177079 0.0968365094 1
43.2216085196 119.5560077429 -9.8031479343 0.2913901726 1
44.9993845224 119.5560077429 -10.2738673628 0.2342900536 1
46.7771605253 119.5560077429 -10.034002759 0.3933100761 1
48.5549365282 119.5560077429 -9.2846403055 0.5121913326 1
50.3327125311 119.5560077429 -9.380736501 0.6379043843 1
52.110488534 119.5560077429 -9.7340581649 0.7416356944 1
53.8882645369 119.5560077429 0 -0 0
-125.6671117544 117.77823174 0 -0 0
-123.8893357515 117.77823174 -9.9510074009 0.2284563219 1
-122.1115597486 117.77823174 -9.9276466992 0.0873355743 1
-120.3337837458 117.77823174 -9.9120600105 -0.0540873131 1
-118.5560077429 117.77823174 -10.0045162094 -0.2222044631 1
-116.77823174 117.77823174 -10.0981537604 -0.3057310717 1
-115.0004557371 117.77823174 -10.0643398821 -0.132642219 1
-113.2226797342 117.77823174 -10.0335044432 -0.207592927 1
-111.4449037313 117.77823174 -10.4431959357 -0.2487583955 1
-109.6671277285 117.77823174 -10.5165800991 -0.1240806378 1
-107.8893517256 117.77823174 -10.5646604156 -0.1563351313 1
-106.1115757227 117.77823174 -10.6510365887 -0.2452343863 1
-104.3337997198 117.77823174 -10.6837178009 -0.3122965258 1
-102.5560237169 117.77823174 -10.7801433429 -0.3219506787 1
-100.778247714 117.77823174 -10.6882842639 -0.2753366709 1
-99.0004717112 117.77823174 -10.7262579337 -0.136865016 1
-97.2226957083 117.77823174 -10.8113825895 -0.3239296225 1
-95.4449197054 117.77823174 -10.7589649208 -0.3066460826 1
-93.6671437025 117.77823174 -10.957641145 0.1356163626 1
-91.8893676996 117.77823174 -12.0528533891 -0.1483577824 1
-90.1115916967 117.77823174 -11.5609884731 -0.4816881042 1
-88.3338156939 117.77823174 -11.2798467094 -0.5116028044 1
-86.556039691 117.77823174 -11.1611057832 -0.2411819904 1
-84.7782636881 117.77823174 -10.8005155817 -0.0685928855 1
-83.0004876852 117.77823174 -11.0710738622 -0.0454756139 1
-81.2227116823 117.77823174 -11.1251225128 -0.0572447452 1
-79.4449356794 117.77823174 -11.1148655123 -0.1166674741 1
-77.6671596766 117.77823174 -10.9656242216 0.1949617667 1
-75.8893836737 117.77823174 -10.6872747448 0.5523859444 1
-74.1116076708 117.77823174 -10.9089207505 0.6332147743 1
-72.3338316679 117.77823174 -10.9466266472 0.3765406034 1
-70.556055665 117.77823174 -10.9502193896 0.2684361424 1
-68.7782796621 117.77823174 0 -0 0
-67.0005036592 117.77823174 0 -0 0
-65.2227276564 117.77823174 0 -0 0
-63.4449516535 117.77823174 0 -0 0
-61.6671756506 117.77823174 0 -0 0
-59.8893996477 117.77823174 -10.590249219 0.5522799807 1
-58.1116236448 117.77823174 -10.4395702586 0.7094728453 1
-56.3338476419 117.77823174 -10.8505175643 0.4957698218 1
-54.5560716391 117.77823174 -10.8654699026 0.4926925784 1
-52.7782956362 117.77823174 -10.6743013503 0.8708756193 1
-51.0005196333 117.77823174 -10.8309758519 0.6920432473 1
-49.2227436304 117.77823174 -10.9636739166 0.6291466271 1
-47.4449676275 117.77823174 -10.9673382562 0.688298719 1
-45.6671916246 117.77823174 -10.9946024318 0.6213067446 1
-43.8894156218 117.77823174 -10.8396290773 0.6943572656 1
-42.1116396189 117.77823174 -10.3629985923 1.0172329788 1
-40.333863616 117.77823174 -10.315631383 0.8961107331 1
-38.5560876131 117.77823174 -10.276897352 0.8461631643 1
-36.7783116102 117.77823174 -10.3810396295 1.0724329108 1
-35.0005356073 117.77823174 -10.223795215 1.1416358036 1
-33.2227596045 117.77823174 -9.7626082244 1.226770483 1
-31.4449836016 117.77823174 -10.4431859121 1.3780694743 1
-29.6672075987 117.77823174 -10.7658124675 1.1599947319 1
-27.8894315958 117.77823174 -10.4822893842 1.1353996962 1
-26.1116555929 117.77823174 -10.5810747667 1.19815885 1
-24.33387959 117.77823174 -10.3988787629 0.8335334359 1
-22.5561035872 117.77823174 -10.0595142376 0.6015588326 1
-20.7783275843 117.77823174 -10.2071746643 0.5377443375 1
-19.0005515814 117.77823174 -10.2834184159 0.9542862406 1
-17.2227755785 117.77823174 -10.0743849552 1.103805328 1
-15.4449995756 117.77823174 -10.1485165924 1.0302450357 1
-13.6672235727 117.77823174 -10.2394348855 1.1798214008 1
-11.8894475698 117.77823174 -10.242460579 1.3255572974 1
-10.111671567 117.77823174 -10.2710808036 1.4906630735 1
-8.3338955641 117.77823174 -10.0666467407 1.419946618 1