TITLE = "B00072"
VARIABLES = "x", "y", "Vx", "Vy", "isValid"
ZONE T="Frame 0", I=102, J=78, F=POINT
-125.6671117544 126.6671117544 0 -0 0
-123.8893357515 126.6671117544 0 -0 0
-122.1115597486 126.6671117544 0 -0 0
-120.3337837458 126.6671117544 0 -0 0
-118.5560077429 126.6671117544 0 -0 0
-116.77823174 126.6671117544 0 -0 0
-115.0004557371 126.6671117544 0 -0 0
-113.2226797342 126.6671117544 0 -0 0
-111.4449037313 126.6671117544 0 -0 0
-109.6671277285 126.6671117544 0 -0 0
-107.8893517256 126.6671117544 0 -0 0
-106.1115757227 126.6671117544 0 -0 0
-104.3337997198 126.6671117544 0 -0 0
-102.5560237169 126.6671117544 0 -0 0
-100.778247714 126.6671117544 0 -0 0
-99.0004717112 126.6671117544 0 -0 0
-97.2226957083 126.6671117544 0 -0 0
-95.4449197054 126.6671117544 0 -0 0
-93.6671437025 126.6671117544 0 -0 0
-91.8893676996 126.6671117544 0 -0 0
-90.1115916967 126.6671117544 0 -0 0
-88.3338156939 126.6671117544 0 -0 0
-86.556039691 126.6671117544 0 -0 0
-84.7782636881 126.6671117544 0 -0 0
-83.0004876852 126.6671117544 0 -0 0
-81.2227116823 126.6671117544 0 -0 0
-79.4449356794 126.6671117544 0 -0 0
-77.6671596766 126.6671117544 0 -0 0
-75.8893836737 126.6671117544 0 -0 0
-74.1116076708 126.6671117544 0 -0 0
-72.3338316679 126.6671117544 0 -0 0
-70.556055665 126.6671117544 0 -0 0
-68.7782796621 126.6671117544 0 -0 0
-67.0005036592 126.6671117544 0 -0 0
-65.2227276564 126.6671117544 0 -0 0
-63.4449516535 126.6671117544 0 -0 0
-61.6671756506 126.6671117544 0 -0 0
-59.8893996477 126.6671117544 0 -0 0
-58.1116236448 126.6671117544 0 -0 0
-56.3338476419 126.6671117544 0 -0 0
-54.5560716391 126.6671117544 0 -0 0
-52.7782956362 126.6671117544 0 -0 0
-51.0005196333 126.6671117544 0 -0 0
-49.2227436304 126.6671117544 0 -0 0
-47.4449676275 126.6671117544 0 -0 0
-45.6671916246 126.6671117544 0 -0 0
-43.8894156218 126.6671117544 0 -0 0
-42.1116396189 126.6671117544 0 -0 0
-40.333863616 126.6671117544 0 -0 0
-38.5560876131 126.6671117544 0 -0 0
-36.7783116102 126.6671117544 0 -0 0
-35.0005356073 126.6671117544 0 -0 0
-33.2227596045 126.6671117544 0 -0 0
-31.4449836016 126.6671117544 0 -0 0
-29.6672075987 126.6671117544 0 -0 0
-27.8894315958 126.6671117544 0 -0 0
-26.1116555929 126.6671117544 0 -0 0
-24.33387959 126.6671117544 0 -0 0
-22.5561035872 126.6671117544 0 -0 0
-20.7783275843 126.6671117544 0 -0 0
-19.0005515814 126.6671117544 0 -0 0
-17.2227755785 126.6671117544 0 -0 0
-15.4449995756 126.6671117544 0 -0 0
-13.6672235727 126.6671117544 0 -0 0
-11.8894475698 126.6671117544 0 -0 0
-10.111671567 126.6671117544 0 -0 0
-8.3338955641 126.6671117544 0 -0 0
-6.5561195612 126.6671117544 0 -0 0
-4.7783435583 126.6671117544 0 -0 0
-3.0005675554 126.6671117544 0 -0 0
-1.2227915525 126.6671117544 0 -0 0
0.5549844503 126.6671117544 0 -0 0
2.3327604532 126.6671117544 0 -0 0
4.1105364561 126.6671117544 0 -0 0
5.888312459 126.6671117544 0 -0 0
7.6660884619 126.6671117544 0 -0 0
9.4438644648 126.6671117544 0 -0 0
11.2216404676 126.6671117544 0 -0 0
12.9994164705 126.6671117544 0 -0 0
14.7771924734 126.6671117544 0 -0 0
16.5549684763 126.6671117544 0 -0 0
18.3327444792 126.6671117544 0 -0 0
20.1105204821 126.6671117544 0 -0 0
21.8882964849 126.6671117544 0 -0 0
23.6660724878 126.6671117544 0 -0 0
25.4438484907 126.6671117544 0 -0 0
27.2216244936 126.6671117544 0 -0 0
28.9994004965 126.6671117544 0 -0 0
30.7771764994 126.6671117544 0 -0 0
32.5549525023 126.6671117544 0 -0 0
34.3327285051 126.6671117544 0 -0 0
36.110504508 126.6671117544 0 -0 0
37.8882805109 126.6671117544 0 -0 0
39.6660565138 126.6671117544 0 -0 0
41.4438325167 126.6671117544 0 -0 0
43.2216085196 126.6671117544 0 -0 0
44.9993845224 126.6671117544 0 -0 0
46.7771605253 126.6671117544 0 -0 0
48.5549365282 126.6671117544 0 -0 0
50.3327125311 126.6671117544 0 -0 0
52.110488534 126.6671117544 0 -0 0
53.8882645369 126.6671117544 0 -0 0
-125.6671117544 124.8893357515 0 -0 0
-123.8893357515 124.8893357515 -10.6820510204 -0.1110399421 1
-122.1115597486 124.8893357515 -10.584003088 -0.217023697 1
-120.3337837458 124.8893357515 -10.6257399014 -0.0099448372 1
-118.5560077429 124.8893357515 -10.7049234299 0.1920434689 1
-116.77823174 124.8893357515 -10.7327489268 0.0216982171 1
-115.0004557371 124.8893357515 -10.9998189965 -0.0012171507 1
-113.2226797342 124.8893357515 -10.8578176046 -0.0085572854 1
-111.4449037313 124.8893357515 -10.5090982022 -0.1581221949 1
-109.6671277285 124.8893357515 -10.6933046525 -0.1100175355 1
-107.8893517256 124.8893357515 -10.8521413865 -0.0072842889 1
-106.1115757227 124.8893357515 -10.762514705 -0.0414446972 1
-104.3337997198 124.8893357515 -10.6170694926 0.0334301178 1
-102.5560237169 124.8893357515 -10.6390440745 0.148986405 1
-100.778247714 124.8893357515 -10.6414311218 0.1249326433 1
-99.0004717112 124.8893357515 -10.5382539732 0.2043223715 1
-97.2226957083 124.8893357515 -10.6418077225 -0.0021894393 1
-95.4449197054 124.8893357515 -10.5923713571 -0.0640049433 1
-93.6671437025 124.8893357515 -10.7141265211 0.0188629719 1
-91.8893676996 124.8893357515 -10.617553489 -0.0263248217 1
-90.1115916967 124.8893357515 -10.7031019997 0.1116499494 1
-88.3338156939 124.8893357515 -11.0132019264 0.1104370945 1
-86.556039691 124.8893357515 -11.179330109 0.0975467527 1
-84.7782636881 124.8893357515 -11.0060479442 0.2804358163 1
-83.0004876852 124.8893357515 -10.8977301238 0.2536384538 1
-81.2227116823 124.8893357515 -10.9242711687 0.2655178446 1
-79.4449356794 124.8893357515 -10.8078070304 0.4336206753 1
-77.6671596766 124.8893357515 -10.9591819146 0.2671946487 1
-75.8893836737 124.8893357515 -11.106034726 0.1480799857 1
-74.1116076708 124.8893357515 -10.9263618041 0.3044738266 1
-72.3338316679 124.8893357515 -10.6233385347 0.5798749349 1
-70.556055665 124.8893357515 -10.7803495426 0.5566731787 1
-68.7782796621 124.8893357515 0 -0 0
-67.0005036592 124.8893357515 0 -0 0
-65.2227276564 124.8893357515 0 -0 0
-63.4449516535 124.8893357515 0 -0 0
-61.6671756506 124.8893357515 0 -0 0
-59.8893996477 124.8893357515 -11.0831608846 0.6096994228 1
-58.1116236448 124.8893357515 -11.1279735093 0.6270445362 1
-56.3338476419 124.8893357515 -10.9959284101 0.4488522423 1
-54.5560716391 124.8893357515 -10.8255316084 0.3822425964 1
-52.7782956362 124.8893357515 -10.4554920217 0.4911045547 1
-51.0005196333 124.8893357515 -10.4537207094 0.6885536046 1
-49.2227436304 124.8893357515 -10.7623314165 0.8250950017 1
-47.4449676275 124.8893357515 -10.38300139 0.8425747177 1
-45.6671916246 124.8893357515 -10.3164318386 0.6732332572 1
-43.8894156218 124.8893357515 -10.5715222816 0.70491211 1
-42.1116396189 124.8893357515 -10.6287770504 0.4978160669 1
-40.333863616 124.8893357515 -10.3311736814 0.3413864274 1
-38.5560876131 124.8893357515 -10.0876848325 0.8555409525 1
-36.7783116102 124.8893357515 -10.3723763804 1.1951302927 1
-35.0005356073 124.8893357515 -10.6090234105 0.959114749 1
-33.2227596045 124.8893357515 -10.5303725645 0.9346113575 1
-31.4449836016 124.8893357515 -10.2874708117 0.9808401729 1
-29.6672075987 124.8893357515 -9.9481535405 1.2177649998 1
-27.8894315958 124.8893357515 -10.5818881097 1.0891221947 1
-26.1116555929 124.8893357515 -10.7195120549 0.8187915931 1
-24.33387959 124.8893357515 -10.5070748682 1.3254971559 1
-22.5561035872 124.8893357515 -10.5584386276 1.5184584996 1
-20.7783275843 124.8893357515 -10.5550907472 0.9897726271 1
-19.0005515814 124.8893357515 -10.6110080821 1.238767293 1
-17.2227755785 124.8893357515 -10.6385042323 1.4779932507 1
-15.4449995756 124.8893357515 -10.6851153763 1.1257942293 1
-13.6672235727 124.8893357515 -9.887608169 1.1019595547 1
-11.8894475698 124.8893357515 -10.2055307949 0.7526258493 1
-10.111671567 124.8893357515 -10.7660759448 0.9556881118 1
-8.3338955641 124.8893357515 -10.691047912 1.6415596891 1
-6.5561195612 124.8893357515 -10.4688806793 1.3770112692 1
-4.7783435583 124.8893357515 -10.4560590707 0.9044747063 1
-3.0005675554 124.8893357515 -10.0989814229 0.7972780965 1
-1.2227915525 124.8893357515 -10.0314195356 1.0444842669 1
0.5549844503 124.8893357515 -10.3523936299 1.1541080184 1
2.3327604532 124.8893357515 -9.8301242895 0.8877825584 1
4.1105364561 124.8893357515 -9.7000166078 1.0103267225 1
5.888312459 124.8893357515 -9.561640893 1.1627397647 1
7.6660884619 124.8893357515 -9.6726965865 1.0875012364 1
9.4438644648 124.8893357515 -9.9038922134 0.5189658502 1
11.2216404676 124.8893357515 -10.1854678556 0.8179095168 1
12.9994164705 124.8893357515 0 -0 0
14.7771924734 124.8893357515 0 -0 0
16.5549684763 124.8893357515 0 -0 0
18.3327444792 124.8893357515 0 -0 0
20.1105204821 124.8893357515 0 -0 0
21.8882964849 124.8893357515 0 -0 0
23.6660724878 124.8893357515 0 -0 0
25.4438484907 124.8893357515 0 -0 0
27.2216244936 124.8893357515 0 -0 0
28.9994004965 124.8893357515 0 -0 0
30.7771764994 124.8893357515 0 -0 0
32.5549525023 124.8893357515 0 -0 0
34.3327285051 124.8893357515 0 -0 0
36.110504508 124.8893357515 -8.8359269616 0.4591006511 1
37.8882805109 124.8893357515 -9.2820599461 0.6712185148 1
39.6660565138 124.8893357515 -9.8571221239 1.0394194881 1
41.4438325167 124.8893357515 -9.8491361834 0.5706904589 1
43.2216085196 124.8893357515 -9.0561109546 0.5241451844 1
44.9993845224 124.8893357515 -8.9376191864 0.3760551751 1
46.7771605253 124.8893357515 -9.0575930146 0.2130543538 1
48.5549365282 124.8893357515 -9.6264978419 0.5710699236 1
50.3327125311 124.8893357515 -9.8172597226 0.7231493233 1
52.110488534 124.8893357515 -10.0805838321 0.7751531607 1
53.8882645369 124.8893357515 0 -0 0
-125.6671117544 123.1115597486 0 -0 0
-123.8893357515 123.1115597486 -10.9910941739 -0.3457953768 1
-122.1115597486 123.1115597486 -10.6804572689 -0.0677551994 1
-120.3337837458 123.1115597486 -10.6212794021 0.2253633272 1
-118.5560077429 123.1115597486 -10.4824468978 0.2019009576 1
-116.77823174 123.1115597486 -10.7572881167 -0.0125710188 1
-115.0004557371 123.1115597486 -10.9587852667 0.0417554286 1
-113.2226797342 123.1115597486 -10.6264673279 0.102943742 1
-111.4449037313 123.1115597486 -10.4964341072 -0.0594843025 1
-109.6671277285 123.1115597486 -10.6067208478 -0.0619658579 1
-107.8893517256 123.1115597486 -10.8472613282 -0.0037574158 1
-106.1115757227 123.1115597486 -10.8113281757 0.039968365 1
-104.3337997198 123.1115597486 -10.8343480753 0.0620231356 1
-102.5560237169 123.1115597486 -10.6984224132 0.0289667546 1
-100.778247714 123.1115597486 -10.6871659172 -0.0257520449 1
-99.0004717112 123.1115597486 -10.6841516793 -0.0505718955 1
-97.2226957083 123.1115597486 -10.6922106489 -0.1936501078 1
-95.4449197054 123.1115597486 -10.7805027604 -0.1493229114 1
-93.6671437025 123.1115597486 -10.6975074023 0.0197221371 1
-91.8893676996 123.1115597486 -10.4336477465 0.1148947299 1
-90.1115916967 123.1115597486 -10.5051589298 0.0059697662 1
-88.3338156939 123.1115597486 -10.8840708291 0.0149552022 1
-86.556039691 123.1115597486 -10.9665148896 0.2207066518 1
-84.7782636881 123.1115597486 -10.8545900073 0.4471024091 1
-83.0004876852 123.1115597486 -10.8032276799 0.3192128056 1
-81.2227116823 123.1115597486 -10.9087918758 0.196778901 1
-79.4449356794 123.1115597486 -10.8835209634 0.3968527006 1
-77.6671596766 123.1115597486 -10.9477364022 0.241488426 1
-75.8893836737 123.1115597486 -10.8240710276 0.0942418305 1
-74.1116076708 123.1115597486 -10.707562499 0.2189038368 1
-72.3338316679 123.1115597486 -10.6478992038 0.3838893297 1
-70.556055665 123.1115597486 -10.6730684482 0.3859198235 1
-68.7782796621 123.1115597486 0 -0 0
-67.0005036592 123.1115597486 0 -0 0
-65.2227276564 123.1115597486 0 -0 0
-63.4449516535 123.1115597486 0 -0 0
-61.6671756506 123.1115597486 0 -0 0
-59.8893996477 123.1115597486 -11.2438491195 0.5779604285 1
-58.1116236448 123.1115597486 -10.9178603644 0.7845538599 1
-56.3338476419 123.1115597486 -10.8545384574 0.8055088991 1
-54.5560716391 123.1115597486 -10.8503099327 0.4510087469 1
-52.7782956362 123.1115597486 -10.4806770175 0.5227877034 1
-51.0005196333 123.1115597486 -10.719361701 0.9099948427 1
-49.2227436304 123.1115597486 -10.7923406249 1.1614853835 1
-47.4449676275 123.1115597486 -10.5098227649 1.2192799944 1
-45.6671916246 123.1115597486 -10.5567432083 0.5069504249 1
-43.8894156218 123.1115597486 -10.6821326411 0.5893916214 1
-42.1116396189 123.1115597486 -10.5872607561 0.8821965527 1
-40.333863616 123.1115597486 -10.3273217575 0.9334958747 1
-38.5560876131 123.1115597486 -10.2844436863 1.0323242155 1
-36.7783116102 123.1115597486 -10.5303038312 1.3294292686 1
-35.0005356073 123.1115597486 -10.5477606361 1.3076279517 1
-33.2227596045 123.1115597486 -10.5979229962 0.7536640072 1
-31.4449836016 123.1115597486 -10.3550985683 0.587353968 1
-29.6672075987 123.1115597486 -10.2150933035 0.8356770531 1
-27.8894315958 123.1115597486 -10.793249908 1.0280513006 1
-26.1116555929 123.1115597486 -10.6205362242 1.0507346937 1
-24.33387959 123.1115597486 -10.3507597841 1.4729599746 1
-22.5561035872 123.1115597486 -10.396309859 1.6563845846 1
-20.7783275843 123.1115597486 -10.5660708784 1.2346404362 1
-19.0005515814 123.1115597486 -10.3166910201 1.0506516411 1
-17.2227755785 123.1115597486 -10.151513647 1.4991487617 1
-15.4449995756 123.1115597486 -10.6166041115 1.5057858129 1
-13.6672235727 123.1115597486 -10.6965680483 1.3860453912 1
-11.8894475698 123.1115597486 -10.5216105114 0.9060842091 1
-10.111671567 123.1115597486 -10.4516615768 0.9298301032 1
-8.3338955641 123.1115597486 -10.487650575 1.3559889287 1
-6.5561195612 123.1115597486 -10.3585810512 1.2249347334 1
-4.7783435583 123.1115597486 -10.2852112072 0.8683281945 1
-3.0005675554 123.1115597486 -10.2240143022 0.7669280859 1
-1.2227915525 123.1115597486 -10.0520094296 0.3985037297 1
0.5549844503 123.1115597486 -10.0052565234 0.8219934154 1
2.3327604532 123.1115597486 -9.6733180493 0.7796780975 1
4.1105364561 123.1115597486 -9.7980316055 0.960990593 1
5.888312459 123.1115597486 -9.9751556707 1.460234306 1
7.6660884619 123.1115597486 -9.708480817 1.3142077252 1
9.4438644648 123.1115597486 -9.9248214776 0.8988314229 1
11.2216404676 123.1115597486 -10.1262040722 0.9475332021 1
12.9994164705 123.1115597486 0 -0 0
14.7771924734 123.1115597486 0 -0 0
16.5549684763 123.1115597486 0 -0 0
18.3327444792 123.1115597486 0 -0 0
20.1105204821 123.1115597486 0 -0 0
21.8882964849 123.1115597486 0 -0 0
23.6660724878 123.1115597486 0 -0 0
25.4438484907 123.1115597486 0 -0 0
27.2216244936 123.1115597486 0 -0 0
28.9994004965 123.1115597486 0 -0 0
30.7771764994 123.1115597486 0 -0 0
32.5549525023 123.1115597486 0 -0 0
34.3327285051 123.1115597486 0 -0 0
36.110504508 123.1115597486 -8.9815568946 0.5089121854 1
37.8882805109 123.1115597486 -9.3730942265 0.3280994376 1
39.6660565138 123.1115597486 -9.6941742845 0.3998783941 1
41.4438325167 123.1115597486 -9.5390849427 0.3452168722 1
43.2216085196 123.1115597486 -9.3846199276 0.6526820257 1
44.9993845224 123.1115597486 -8.9147754157 0.6507918623 1
46.7771605253 123.1115597486 -9.0403896634 0.1996843114 1
48.5549365282 123.1115597486 -9.6095909027 0.2712227015 1
50.3327125311 123.1115597486 -9.919404441 0.6616445507 1
52.110488534 123.1115597486 -10.0381783018 0.915197088 1
53.8882645369 123.1115597486 0 -0 0
-125.6671117544 121.3337837458 0 -0 0
-123.8893357515 121.3337837458 -10.849881782 -0.388942653 1
-122.1115597486 121.3337837458 -10.556329377 -0.0583931627 1
-120.3337837458 121.3337837458 -10.2915389589 0.187424024 1
-118.5560077429 121.3337837458 -10.2434944411 0.1885137318 1
-116.77823174 121.3337837458 -10.6271847309 0.0450474633 1
-115.0004557371 121.3337837458 -10.7256006723 0.0870448901 1
-113.2226797342 121.3337837458 -10.5509409793 0.1901604651 1
-111.4449037313 121.3337837458 -10.6104610803 -0.0529990372 1
-109.6671277285 121.3337837458 -10.6503306413 -0.1803803013 1
-107.8893517256 121.3337837458 -10.7610541242 -0.1612839228 1
-106.1115757227 121.3337837458 -10.8531480417 -0.0299161322 1
-104.3337997198 121.3337837458 -10.8842039997 0.0018643885 1
-102.5560237169 121.3337837458 -10.6833369043 -0.1341285748 1
-100.778247714 121.3337837458 -10.8494994535 -0.1176684016 1
-99.0004717112 121.3337837458 -10.9274328967 -0.1878493108 1
-97.2226957083 121.3337837458 -10.6288543752 -0.1584744526 1
-95.4449197054 121.3337837458 -10.6835273526 -0.005777886 1
-93.6671437025 121.3337837458 -10.7054575443 0.0582542643 1
-91.8893676996 121.3337837458 -10.5615688528 0.0271424605 1
-90.1115916967 121.3337837458 -10.4774766271 0.0285615151 1
-88.3338156939 121.3337837458 -10.7832463613 0.2223218824 1
-86.556039691 121.3337837458 -10.766392404 0.3170734843 1
-84.7782636881 121.3337837458 -10.7521259659 0.2649092693 1
-83.0004876852 121.3337837458 -10.5701963033 0.1427603212 1
-81.2227116823 121.3337837458 -10.6782606699 0.3254417533 1
-79.4449356794 121.3337837458 -10.9437283966 0.296860191 1
-77.6671596766 121.3337837458 -10.9558340342 0.1133038424 1
-75.8893836737 121.3337837458 -10.7394146168 0.0567249502 1
-74.1116076708 121.3337837458 -10.846870408 0.2166800309 1
-72.3338316679 121.3337837458 -10.780906568 0.5405853104 1
-70.556055665 121.3337837458 -10.5452576015 0.551754458 1
-68.7782796621 121.3337837458 0 -0 0
-67.0005036592 121.3337837458 0 -0 0
-65.2227276564 121.3337837458 0 -0 0
-63.4449516535 121.3337837458 0 -0 0
-61.6671756506 121.3337837458 0 -0 0
-59.8893996477 121.3337837458 -11.1154984307 0.7156158764 1
-58.1116236448 121.3337837458 -10.8948304413 0.8094982895 1
-56.3338476419 121.3337837458 -10.6840457156 0.7412547979 1
-54.5560716391 121.3337837458 -10.6993274006 0.3523021212 1
-52.7782956362 121.3337837458 -10.9746239771 0.503440735 1
-51.0005196333 121.3337837458 -10.995783784 0.927268359 1
-49.2227436304 121.3337837458 -10.7060732793 1.2309002037 1
-47.4449676275 121.3337837458 -10.6792172072 1.3034380894 1
-45.6671916246 121.3337837458 -10.8005528122 0.66249942 1
-43.8894156218 121.3337837458 -10.6722493774 0.6871603251 1
-42.1116396189 121.3337837458 -10.3737882752 1.0293515039 1
-40.333863616 121.3337837458 -10.3924607989 1.1444481376 1
-38.5560876131 121.3337837458 -10.5131591897 1.0741025551 1
-36.7783116102 121.3337837458 -10.6226970247 1.1434672574 1
-35.0005356073 121.3337837458 -10.3863149038 1.2304591656 1
-33.2227596045 121.3337837458 -10.1851055742 0.8409150969 1
-31.4449836016 121.3337837458 -10.3806859398 0.6112845826 1
-29.6672075987 121.3337837458 -10.5550621084 1.0246375508 1
-27.8894315958 121.3337837458 -10.8161051342 1.3171045438 1
-26.1116555929 121.3337837458 -10.3925581709 1.3128760191 1
-24.33387959 121.3337837458 -10.0224784898 1.3630412431 1
-22.5561035872 121.3337837458 -9.9654786067 1.4086614831 1
-20.7783275843 121.3337837458 -10.3892360655 1.2808549322 1
-19.0005515814 121.3337837458 -10.6150690696 1.2897845225 1
-17.2227755785 121.3337837458 -10.2879290332 1.4469186774 1
-15.4449995756 121.3337837458 -10.1034834485 1.314877874 1
-13.6672235727 121.3337837458 -10.4053983948 1.1849577767 1
-11.8894475698 121.3337837458 -10.7745802483 1.1408153008 1
-10.111671567 121.3337837458 -10.3183205701 1.1280008519 1
-8.3338955641 121.3337837458 -10.1350062196 1.3503069829 1
-6.5561195612 121.3337837458 -9.9536350145 1.290068047 1
-4.7783435583 121.3337837458 -10.103620915 1.0278493967 1
-3.0005675554 121.3337837458 -10.3034484205 1.2029587196 1
-1.2227915525 121.3337837458 -10.3395176074 0.9233763406 1
0.5549844503 121.3337837458 -9.6382569495 0.6070589218 1
2.3327604532 121.3337837458 -9.5610036788 0.8969412595 1
4.1105364561 121.3337837458 -9.7080569621 1.2163244661 1
5.888312459 121.3337837458 -9.9470566729 1.4069775193 1
7.6660884619 121.3337837458 -9.5437716889 1.2375701895 1
9.4438644648 121.3337837458 -9.8189365267 1.1883529112 1
11.2216404676 121.3337837458 -10.2676570303 0.961361466 1
12.9994164705 121.3337837458 0 -0 0
14.7771924734 121.3337837458 0 -0 0
16.5549684763 121.3337837458 0 -0 0
18.3327444792 121.3337837458 0 -0 0
20.1105204821 121.3337837458 0 -0 0
21.8882964849 121.3337837458 0 -0 0
23.6660724878 121.3337837458 0 -0 0
25.4438484907 121.3337837458 0 -0 0
27.2216244936 121.3337837458 0 -0 0
28.9994004965 121.3337837458 0 -0 0
30.7771764994 121.3337837458 0 -0 0
32.5549525023 121.3337837458 0 -0 0
34.3327285051 121.3337837458 0 -0 0
36.110504508 121.3337837458 -9.8210300259 0.5135430858 1
37.8882805109 121.3337837458 -9.68134838 -0.0566404657 1
39.6660565138 121.3337837458 -9.3592788501 -0.3989032416 1
41.4438325167 121.3337837458 -9.1478039284 0.1219126777 1
43.2216085196 121.3337837458 -9.3016990305 0.8405828864 1
44.9993845224 121.3337837458 -9.1388700423 0.9613829451 1
46.7771605253 121.3337837458 -9.3523353634 0.3742237213 1
48.5549365282 121.3337837458 -9.6889448323 0.2631594362 1
50.3327125311 121.3337837458 -9.7079467026 0.5181095489 1
52.110488534 121.3337837458 -9.610349832 0.7963086718 1
53.8882645369 121.3337837458 0 -0 0
-125.6671117544 119.5560077429 0 -0 0
-123.8893357515 119.5560077429 -10.3062850976 0.0429897626 1
-122.1115597486 119.5560077429 -10.1878090807 0.0716572414 1
-120.3337837458 119.5560077429 -10.4201860598 0.0409334939 1
-118.5560077429 119.5560077429 -10.3939657699 0.0601931137 1
-116.77823174 119.5560077429 -10.4766933548 -0.0623066601 1
-115.0004557371 119.5560077429 -10.6552679773 -0.1887184995 1
-113.2226797342 119.5560077429 -10.6718627531 -0.0942246472 1
-111.4449037313 119.5560077429 -10.6113016302 -0.0652593245 1
-109.6671277285 119.5560077429 -10.6274811429 -0.1998303694 1
-107.8893517256 119.5560077429 -10.7718352155 -0.2853373538 1
-106.1115757227 119.5560077429 -10.8704516288 -0.0369455354 1
-104.3337997198 119.5560077429 -10.9065451588 -0.0560462097 1
-102.5560237169 119.5560077429 -10.7913153544 -0.2672562222 1
-100.778247714 119.5560077429 -10.878988867 -0.1047365334 1
-99.0004717112 119.5560077429 -11.2061947728 -0.1298427724 1
-97.2226957083 119.5560077429 -10.7241300679 -0.0638288145 1
-95.4449197054 119.5560077429 -10.6149631059 0.0963725602 1
-93.6671437025 119.5560077429 -10.9508408525 0.097366328 1
-91.8893676996 119.5560077429 -11.023506181 -0.1241121406 1
-90.1115916967 119.5560077429 -10.8492001777 -0.1937360243 1
-88.3338156939 119.5560077429 -10.903725665 0.0916170809 1
-86.556039691 119.5560077429 -10.7665771245 0.269583128 1
-84.7782636881 119.5560077429 -10.7362557527 0.1834289058 1
-83.0004876852 119.5560077429 -10.7546275685 0.1512402817 1
-81.2227116823 119.5560077429 -10.4937277368 0.5965484675 1
-79.4449356794 119.5560077429 -10.7150043015 0.4910716201 1
-77.6671596766 119.5560077429 -11.0393520511 0.3378824653 1
-75.8893836737 119.5560077429 -11.0540294566 0.3275868024 1
-74.1116076708 119.5560077429 -11.2788028237 0.2943657481 1
-72.3338316679 119.5560077429 -11.0767400567 0.5347114844 1
-70.556055665 119.5560077429 -10.7144472761 0.5142418735 1
-68.7782796621 119.5560077429 0 -0 0
-67.0005036592 119.5560077429 0 -0 0
-65.2227276564 119.5560077429 0 -0 0
-63.4449516535 119.5560077429 0 -0 0
-61.6671756506 119.5560077429 0 -0 0
-59.8893996477 119.5560077429 -10.70452535 0.7542453757 1
-58.1116236448 119.5560077429 -10.9250472813 0.7835142701 1
-56.3338476419 119.5560077429 -10.6594349285 0.6652573403 1
-54.5560716391 119.5560077429 -10.5640790471 0.3745029499 1
-52.7782956362 119.5560077429 -11.0276144226 0.5638572317 1
-51.0005196333 119.5560077429 -10.9304872289 0.9537664456 1
-49.2227436304 119.5560077429 -10.7052198419 0.9420817989 1
-47.4449676275 119.5560077429 -10.6678275405 0.7912395971 1
-45.6671916246 119.5560077429 -10.6119030459 0.9148118956 1
-43.8894156218 119.5560077429 -10.6523024254 1.1255823019 1
-42.1116396189 119.5560077429 -10.5013155975 1.0710424951 1
-40.333863616 119.5560077429 -10.5877877107 1.0660006273 1
-38.5560876131 119.5560077429 -10.7185139914 1.3029526611 1
-36.7783116102 119.5560077429 -10.6368732504 1.2224302668 1
-35.0005356073 119.5560077429 -10.4710028174 1.0317743497 1
-33.2227596045 119.5560077429 -9.9590262761 1.2044980572 1
-31.4449836016 119.5560077429 -10.0701048806 1.3054270569 1
-29.6672075987 119.5560077429 -10.9788295907 1.4342187839 1
-27.8894315958 119.5560077429 -11.0595610485 1.3608518038 1
-26.1116555929 119.5560077429 -10.6631107236 0.9836167085 1
-24.33387959 119.5560077429 -9.9330995343 0.8358560458 1
-22.5561035872 119.5560077429 -9.9133444625 0.8027767538 1
-20.7783275843 119.5560077429 -10.6864771531 0.9038990656 1
-19.0005515814 119.5560077429 -10.5572315005 1.0979071589 1
-17.2227755785 119.5560077429 -10.1575134839 1.0681557 1
-15.4449995756 119.5560077429 -9.7171540896 0.952745471 1
-13.6672235727 119.5560077429 -10.0090526016 0.9212269957 1
-11.8894475698 119.5560077429 -10.3633565778 0.8792897105 1
-10.111671567 119.5560077429 -9.9805082699 1.0564853728 1
-8.3338955641 119.5560077429 -9.8964389553 1.3040108662 1
-6.5561195612 119.5560077429 -9.9528918366 1.1161314847 1
-4.7783435583 119.5560077429 -9.9815321084 0.8170775585 1
-3.0005675554 119.5560077429 -10.0217925896 0.6999318157 1
-1.2227915525 119.5560077429 -10.2538545414 0.4061531639 1
0.5549844503 119.5560077429 -9.39917705 0.4941331121 1
2.3327604532 119.5560077429 -9.3986558231 0.800204986 1
4.1105364561 119.5560077429 -9.7069643904 1.2824042934 1
5.888312459 119.5560077429 -9.7647976637 1.5159425775 1
7.6660884619 119.5560077429 -9.7758723031 1.0230982132 1
9.4438644648 119.5560077429 -10.0104229701 1.0674297054 1
11.2216404676 119.5560077429 -10.1963219759 0.9209764059 1
12.9994164705 119.5560077429 0 -0 0
14.7771924734 119.5560077429 0 -0 0
16.5549684763 119.5560077429 0 -0 0
18.3327444792 119.5560077429 0 -0 0
20.1105204821 119.5560077429 0 -0 0
21.8882964849 119.5560077429 0 -0 0
23.6660724878 119.5560077429 0 -0 0
25.4438484907 119.5560077429 0 -0 0
27.2216244936 119.5560077429 0 -0 0
28.9994004965 119.5560077429 0 -0 0
30.7771764994 119.5560077429 0 -0 0
32.5549525023 119.5560077429 0 -0 0
34.3327285051 119.5560077429 0 -0 0
36.110504508 119.5560077429 -10.2192989172 0.1914434852 1
37.8882805109 119.5560077429 -9.7054751707 -0.154788634 1
39.6660565138 119.5560077429 -9.3264701951 -0.4935603353 1
41.4438325167 119.5560077429 -9.2891595145 0.0814832273 1
43.2216085196 119.5560077429 -9.2138665724 0.4163228159 1
44.9993845224 119.5560077429 -9.357726625 0.3824158614 1
46.7771605253 119.5560077429 -9.4242875848 0.1518316737 1
48.5549365282 119.5560077429 -9.5027809173 0.3118783987 1
50.3327125311 119.5560077429 -9.4973953834 0.0212013332 1
52.110488534 119.5560077429 -9.5567522431 0.150194964 1
53.8882645369 119.5560077429 0 -0 0
-125.6671117544 117.77823174 0 -0 0
-123.8893357515 117.77823174 -10.2869094905 0.1463459039 1
-122.1115597486 117.77823174 -10.2173443163 0.2476758474 1
-120.3337837458 117.77823174 -10.4949763903 0.0376013649 1
-118.5560077429 117.77823174 -10.7701240448 -0.1771970942 1
-116.77823174 117.77823174 -10.7132344212 -0.2045514822 1
-115.0004557371 117.77823174 -10.5946524407 -0.124570362 1
-113.2226797342 117.77823174 -10.4538137856 -0.0250589849 1
-111.4449037313 117.77823174 -10.5194182082 0.0373865736 1
-109.6671277285 117.77823174 -10.6861893328 -0.188609672 1
-107.8893517256 117.77823174 -11.0107074834 -0.3734719517 1
-106.1115757227 117.77823174 -11.0913630483 -0.2482042339 1
-104.3337997198 117.77823174 -11.0608254533 -0.1762835153 1
-102.5560237169 117.77823174 -10.976797665 0.0771816736 1
-100.778247714 117.77823174 -10.7456908185 0.2031066527 1
-99.0004717112 117.77823174 -10.8495023174 0.0193154656 1
-97.2226957083 117.77823174 -10.9282362161 0.0643357219 1
-95.4449197054 117.77823174 -10.8093435041 0.1395685225 1
-93.6671437025 117.77823174 -10.9829621753 0.203865582 1
-91.8893676996 117.77823174 -11.0799619261 0.1405494027 1
-90.1115916967 117.77823174 -10.8738252842 0.0521670789 1
-88.3338156939 117.77823174 -10.8528788366 0.084997213 1
-86.556039691 117.77823174 -11.0865689065 0.1685209577 1
-84.7782636881 117.77823174 -11.0990511449 0.1988953113 1
-83.0004876852 117.77823174 -11.0458544997 0.3356357483 1
-81.2227116823 117.77823174 -10.8163943865 0.5190159681 1
-79.4449356794 117.77823174 -10.7753205623 0.5326895823 1
-77.6671596766 117.77823174 -10.9831311445 0.4524464167 1
-75.8893836737 117.77823174 -11.2525209603 0.420962308 1
-74.1116076708 117.77823174 -11.2783417383 0.3644736282 1
-72.3338316679 117.77823174 -10.9555505097 0.1912401494 1
-70.556055665 117.77823174 -10.8735245763 0.1475401436 1
-68.7782796621 117.77823174 0 -0 0
-67.0005036592 117.77823174 0 -0 0
-65.2227276564 117.77823174 0 -0 0
-63.4449516535 117.77823174 0 -0 0
-61.6671756506 117.77823174 0 -0 0
-59.8893996477 117.77823174 -10.5211050359 0.7840211775 1
-58.1116236448 117.77823174 -10.7148253088 0.8121803169 1
-56.3338476419 117.77823174 -10.7482439711 0.6913330041 1
-54.5560716391 117.77823174 -10.823936425 0.6495417769 1
-52.7782956362 117.77823174 -10.9203519435 0.9168166144 1
-51.0005196333 117.77823174 -10.8548993068 0.9844959209 1
-49.2227436304 117.77823174 -10.8376200627 0.759222806 1
-47.4449676275 117.77823174 -10.7218747592 0.9030313088 1
-45.6671916246 117.77823174 -10.694478845 1.4214429974 1
-43.8894156218 117.77823174 -10.9994495555 1.1652427993 1
-42.1116396189 117.77823174 -10.5003705158 1.0390815498 1
-40.333863616 117.77823174 -10.5005538043 0.9997604225 1
-38.5560876131 117.77823174 -10.7437104427 1.0647949322 1
-36.7783116102 117.77823174 -10.5195313316 1.0526592238 1
-35.0005356073 117.77823174 -10.602001167 0.9498185815 1
-33.2227596045 117.77823174 -10.7427553374 1.5500886663 1
-31.4449836016 117.77823174 -9.8869079494 1.6088655894 1
-29.6672075987 117.77823174 -11.0220685112 1.2359263201 1
-27.8894315958 117.77823174 -11.2079746767 1.3269534409 1
-26.1116555929 117.77823174 -10.8858006151 1.0825366935 1
-24.33387959 117.77823174 -10.2763618057 0.7401378831 1
-22.5561035872 117.77823174 -10.5951092302 0.2291708609 1
-20.7783275843 117.77823174 -11.2181285774 0.6640631007 1
-19.0005515814 117.77823174 -10.3005558977 1.0964050517 1
-17.2227755785 117.77823174 -10.0775767539 0.9857560298 1
-15.4449995756 117.77823174 -9.9432720502 1.0854750385 1
-13.6672235727 117.77823174 -10.0943963446 1.0470717861 1
-11.8894475698 117.77823174 -10.1235263406 1.0239989047 1
-10.111671567 117.77823174 -9.6266868582 1.075218038 1
-8.3338955641 117.77823174 -10.1621973662 0.9998778418 1