TITLE = "B00001"
VARIABLES = "x", "y", "Vx", "Vy", "isValid"
ZONE T="Frame 0", I=51, J=39, F=POINT
-124.778223753 125.778223753 -10.2621913077 -0.1544968086 1
-121.2226717472 125.778223753 -10.3941418988 -0.2597385267 1
-117.6671197414 125.778223753 -10.3948184914 -0.1824090723 1
-114.1115677357 125.778223753 -10.3900988105 -0.2318103551 1
-110.5560157299 125.778223753 -10.558601869 -0.2142663584 1
-107.0004637241 125.778223753 -10.6138712502 -0.1311323816 1
-103.4449117184 125.778223753 -10.7570876449 -0.0318569869 1
-99.8893597126 125.778223753 -10.7763623001 -0.0902434178 1
-96.3338077068 125.778223753 -10.452497115 -0.0294332825 1
-92.7782557011 125.778223753 -10.6839325922 0.0424731168 1
-89.2227036953 125.778223753 -10.7143377325 0.0271786898 1
-85.6671516895 125.778223753 -10.7560881494 0.1616026754 1
-82.1115996838 125.778223753 -10.6218836816 0.2437372909 1
-78.556047678 125.778223753 -10.6964427534 0.3085952466 1
-75.0004956722 125.778223753 -10.7103211352 0.2604116737 1
-71.4449436665 125.778223753 -10.7656678413 0.3712935428 1
-67.8893916607 125.778223753 0 -0 0
-64.3338396549 125.778223753 0 -0 0
-60.7782876492 125.778223753 0 -0 0
-57.2227356434 125.778223753 -10.2946419772 0.6127999352 1
-53.6671836376 125.778223753 -10.5574928299 0.6467389742 1
-50.1116316319 125.778223753 -10.3692404275 0.6494794874 1
-46.5560796261 125.778223753 -10.4057714157 0.7085452601 1
-43.0005276203 125.778223753 -10.6656481248 0.5884707485 1
-39.4449756145 125.778223753 -10.7530789233 0.6997448578 1
-35.8894236088 125.778223753 -10.0949641096 0.7770171912 1
-32.333871603 125.778223753 -10.1950131809 0.7521482966 1
-28.7783195972 125.778223753 -9.9400093704 0.8250950017 1
-25.2227675915 125.778223753 -10.2417975898 1.0788080955 1
-21.6672155857 125.778223753 -10.2380437539 0.8231432648 1
-18.1116635799 125.778223753 -10.00869748 0.9268104955 1
-14.5561115742 125.778223753 -10.2069419737 1.117568707 1
-11.0005595684 125.778223753 -10.0011998317 0.9137751696 1
-7.4450075626 125.778223753 -10.0919849543 1.0130373887 1
-3.8894555569 125.778223753 -9.7422001871 0.7598747871 1
-0.3339035511 125.778223753 -9.7395639819 0.989208263 1
3.2216484547 125.778223753 -9.618075159 0.5909211145 1
6.7772004604 125.778223753 -9.6978937538 0.9650441523 1
10.3327524662 125.778223753 -9.4662449172 0.5199281152 1
13.888304472 125.778223753 0 -0 0
17.4438564777 125.778223753 0 -0 0
20.9994084835 125.778223753 0 -0 0
24.5549604893 125.778223753 0 -0 0
28.110512495 125.778223753 0 -0 0
31.6660645008 125.778223753 0 -0 0
35.2216165066 125.778223753 0 -0 0
38.7771685123 125.778223753 -9.3810937705 0.666486573 1
42.3327205181 125.778223753 -9.3929702974 0.5798961008 1
45.8882725239 125.778223753 -9.2795977218 0.4092369852 1
49.4438245296 125.778223753 -9.2726427795 0.3710287678 1
52.9993765354 125.778223753 0 -0 0
-124.778223753 122.2226717472 -10.4198581451 -0.1520448877 1
-121.2226717472 122.2226717472 -10.519645887 -0.2807471295 1
-117.6671197414 122.2226717472 -10.3326342623 -0.1866373173 1
-114.1115677357 122.2226717472 -10.6366527313 -0.1671368403 1
-110.5560157299 122.2226717472 -10.4299877028 -0.2140587716 1
-107.0004637241 122.2226717472 -10.5608314027 -0.0913352735 1
-103.4449117184 122.2226717472 -10.7698376564 -0.1468288935 1
-99.8893597126 122.2226717472 -10.447410857 -0.0541172384 1
-96.3338077068 122.2226717472 -10.7137943106 0.1365352442 1
-92.7782557011 122.2226717472 -10.6943972243 -0.1316982784 1
-89.2227036953 122.2226717472 -10.6917495635 -0.0254702376 1
-85.6671516895 122.2226717472 -10.950482867 0.1006367381 1
-82.1115996838 122.2226717472 -10.5881435483 0.3212630557 1
-78.556047678 122.2226717472 -10.7880082844 0.3272954022 1
-75.0004956722 122.2226717472 -10.7610369409 0.1984214728 1
-71.4449436665 122.2226717472 -10.6764506952 0.2405887413 1
-67.8893916607 122.2226717472 0 -0 0
-64.3338396549 122.2226717472 0 -0 0
-60.7782876492 122.2226717472 0 -0 0
-57.2227356434 122.2226717472 -10.6406879439 0.5774938839 1
-53.6671836376 122.2226717472 -10.3754163933 0.5750435626 1
-50.1116316319 122.2226717472 -10.5148145147 0.8108039521 1
-46.5560796261 122.2226717472 -10.4068539638 0.5386103939 1
-43.0005276203 122.2226717472 -10.4210173021 0.8720643101 1
-39.4449756145 122.2226717472 -10.4266355265 0.9053258168 1
-35.8894236088 122.2226717472 -10.2936159908 0.9036401526 1
-32.333871603 122.2226717472 -10.2753408311 0.8790231903 1
-28.7783195972 122.2226717472 -10.3483598493 0.9214616552 1
-25.2227675915 122.2226717472 -10.6604659267 1.09521475 1
-21.6672155857 122.2226717472 -10.4105412145 1.1098919764 1
-18.1116635799 122.2226717472 -10.1374992306 0.9498762172 1
-14.5561115742 122.2226717472 -10.0495937434 0.9574742804 1
-11.0005595684 122.2226717472 -9.9485050823 0.9210899768 1
-7.4450075626 122.2226717472 -10.2265159048 1.0845197542 1
-3.8894555569 122.2226717472 -9.911703457 0.7597690919 1
-0.3339035511 122.2226717472 -9.9956553523 0.8553839758 1
3.2216484547 122.2226717472 -9.7985829032 0.9724599114 1
6.7772004604 122.2226717472 -9.913925831 0.7962862977 1
10.3327524662 122.2226717472 -9.7801731409 0.8525061304 1
13.888304472 122.2226717472 0 -0 0
17.4438564777 122.2226717472 0 -0 0
20.9994084835 122.2226717472 0 -0 0
24.5549604893 122.2226717472 0 -0 0
28.110512495 122.2226717472 0 -0 0
31.6660645008 122.2226717472 0 -0 0
35.2216165066 122.2226717472 0 -0 0
38.7771685123 122.2226717472 -9.4380041572 0.5165992975 1
42.3327205181 122.2226717472 -9.5972174919 0.555080725 1
45.8882725239 122.2226717472 -9.3043610107 0.4890280599 1
49.4438245296 122.2226717472 -9.2056887516 0.5225837411 1
52.9993765354 122.2226717472 0 -0 0
-124.778223753 118.6671197414 -10.2830811935 -0.2588650421 1
-121.2226717472 118.6671197414 -10.2909790696 -0.2943391229 1
-117.6671197414 118.6671197414 -10.5126522823 -0.2585326973 1
-114.1115677357 118.6671197414 -10.4643972689 -0.1813911069 1
-110.5560157299 118.6671197414 -10.4820101555 -0.2329078044 1
-107.0004637241 118.6671197414 -10.6085093434 -0.2728065636 1
-103.4449117184 118.6671197414 -10.6004847404 -0.1055825203 1
-99.8893597126 118.6671197414 -10.6206701108 -0.1462607034 1
-96.3338077068 118.6671197414 -10.6946900564 -0.1664092684 1
-92.7782557011 118.6671197414 -11.0301596995 -0.016803982 1
-89.2227036953 118.6671197414 -10.6175406015 0.0454966623 1
-85.6671516895 118.6671197414 -10.9329136547 -0.0071125992 1
-82.1115996838 118.6671197414 -10.8796246492 0.10334039 1
-78.556047678 118.6671197414 -10.9313041519 0.3282590992 1
-75.0004956722 118.6671197414 -10.6867277429 0.3437816413 1
-71.4449436665 118.6671197414 -10.9384939326 0.4031429533 1
-67.8893916607 118.6671197414 0 -0 0
-64.3338396549 118.6671197414 0 -0 0
-60.7782876492 118.6671197414 -10.4235504075 0.732196825 1
-57.2227356434 118.6671197414 -10.7282562087 0.6924747093 1
-53.6671836376 118.6671197414 -10.6156962602 0.6584925778 1
-50.1116316319 118.6671197414 -10.6832574315 0.707047941 1
-46.5560796261 118.6671197414 -10.5797738473 0.7875072403 1
-43.0005276203 118.6671197414 -10.5830007286 0.8072737676 1
-39.4449756145 118.6671197414 -10.2177781948 0.6867903023 1
-35.8894236088 118.6671197414 -10.410085141 1.0072652305 1
-32.333871603 118.6671197414 -10.3870194193 1.0362831771 1
-28.7783195972 118.6671197414 -10.0615962813 1.0948657141 1
-25.2227675915 118.6671197414 -10.0571601249 0.9571282874 1
-21.6672155857 118.6671197414 -10.3091232066 0.9070616885 1
-18.1116635799 118.6671197414 -10.2578360561 0.8845945186 1
-14.5561115742 118.6671197414 -10.1186563059 1.2025599237 1
-11.0005595684 118.6671197414 -9.839961731 0.9224808399 1
-7.4450075626 118.6671197414 -9.8125772723 0.8878570194 1
-3.8894555569 118.6671197414 -9.8107272032 0.9938575101 1
-0.3339035511 118.6671197414 -9.8151726672 0.8878955029 1
3.2216484547 118.6671197414 -9.8634570353 0.9873321505 1
6.7772004604 118.6671197414 -9.6873145663 0.7878768603 1
10.3327524662 118.6671197414 -9.4954221674 0.9030112616 1
13.888304472 118.6671197414 0 -0 0
17.4438564777 118.6671197414 0 -0 0
20.9994084835 118.6671197414 0 -0 0
24.5549604893 118.6671197414 0 -0 0
28.110512495 118.6671197414 0 -0 0
31.6660645008 118.6671197414 0 -0 0
35.2216165066 118.6671197414 0 -0 0
38.7771685123 118.6671197414 -9.4022736245 0.5913584832 1
42.3327205181 118.6671197414 -9.4539431036 0.5642801021 1
45.8882725239 118.6671197414 -9.4285354408 0.3942985636 1
49.4438245296 118.6671197414 -9.5125446138 0.1678787317 1
52.9993765354 118.6671197414 0 -0 0
-124.778223753 115.1115677357 -10.2498078733 -0.5721150622 1
-121.2226717472 115.1115677357 -10.4029132595 -0.2936420356 1
-117.6671197414 115.1115677357 -10.5705313777 -0.4742646484 1
-114.1115677357 115.1115677357 -10.7399444353 -0.3897186314 1
-110.5560157299 115.1115677357 -10.6597220329 -0.410828007 1
-107.0004637241 115.1115677357 -10.5153042388 -0.37465044 1
-103.4449117184 115.1115677357 -10.7499265029 -0.2753025951 1
-99.8893597126 115.1115677357 -10.914390053 -0.1520467559 1
-96.3338077068 115.1115677357 -10.8593232916 -0.0259937578 1
-92.7782557011 115.1115677357 -10.736940221 -0.0628328988 1
-89.2227036953 115.1115677357 -10.8819186203 -0.1161662944 1
-85.6671516895 115.1115677357 -10.8210503459 -0.0505051647 1
-82.1115996838 115.1115677357 -10.9804441053 0.1451727183 1
-78.556047678 115.1115677357 -10.9306161037 0.3137770195 1
-75.0004956722 115.1115677357 -10.9530446112 0.3435933409 1
-71.4449436665 115.1115677357 -10.8260213326 0.4380048342 1
-67.8893916607 115.1115677357 0 -0 0
-64.3338396549 115.1115677357 0 -0 0
-60.7782876492 115.1115677357 -10.8142421777 0.6146808358 1
-57.2227356434 115.1115677357 -10.7885867889 0.6674849946 1
-53.6671836376 115.1115677357 -10.6556567495 0.9345206977 1
-50.1116316319 115.1115677357 -10.8045536582 0.8608526518 1
-46.5560796261 115.1115677357 -10.5230918554 0.9431802774 1
-43.0005276203 115.1115677357 -10.3332163467 0.8923948436 1
-39.4449756145 115.1115677357 -10.3175859838 0.8130348283 1
-35.8894236088 115.1115677357 -10.5691853523 0.6381737684 1
-32.333871603 115.1115677357 -10.7397496912 1.0573003268 1
-28.7783195972 115.1115677357 -10.439437088 1.0736729726 1
-25.2227675915 115.1115677357 -10.377892221 1.1622529044 1
-21.6672155857 115.1115677357 -10.283415552 1.3135864413 1
-18.1116635799 115.1115677357 -10.0517645675 0.9732897218 1
-14.5561115742 115.1115677357 -10.1141041623 1.0867653972 1
-11.0005595684 115.1115677357 -10.0180036711 0.9538024232 1
-7.4450075626 115.1115677357 -9.9198683902 1.1635831785 1
-3.8894555569 115.1115677357 -9.8911214387 0.7377596064 1
-0.3339035511 115.1115677357 -9.6475130226 0.9463766405 1
3.2216484547 115.1115677357 -9.6765757173 1.0214325962 1
6.7772004604 115.1115677357 -9.5905553818 0.6944371411 1
10.3327524662 115.1115677357 -9.6721252416 0.8482757263 1
13.888304472 115.1115677357 0 -0 0
17.4438564777 115.1115677357 0 -0 0
20.9994084835 115.1115677357 0 -0 0
24.5549604893 115.1115677357 0 -0 0
28.110512495 115.1115677357 0 -0 0
31.6660645008 115.1115677357 0 -0 0
35.2216165066 115.1115677357 -9.3370816013 0.5270735057 1
38.7771685123 115.1115677357 -9.2804239523 0.645997452 1
42.3327205181 115.1115677357 -9.1855026653 0.4386646909 1
45.8882725239 115.1115677357 -9.4557874449 0.6637045335 1
49.4438245296 115.1115677357 -9.3503678751 0.5740715425 1
52.9993765354 115.1115677357 0 -0 0
-124.778223753 111.5560157299 -10.3784957846 -0.6026937808 1
-121.2226717472 111.5560157299 -10.5873738795 -0.4997152695 1
-117.6671197414 111.5560157299 -10.4864835423 -0.4726353669 1
-114.1115677357 111.5560157299 -10.6541195598 -0.4627185868 1
-110.5560157299 111.5560157299 -10.6273723153 -0.3339368387 1
-107.0004637241 111.5560157299 -10.6607838179 -0.3092065292 1
-103.4449117184 111.5560157299 -10.6414833877 -0.3392552279 1
-99.8893597126 111.5560157299 -10.9212626586 -0.1318428822 1
-96.3338077068 111.5560157299 -10.8036028487 -0.1931172911 1
-92.7782557011 111.5560157299 -10.9499079423 -0.1234208034 1
-89.2227036953 111.5560157299 -10.9831554875 0.0250206078 1
-85.6671516895 111.5560157299 -11.0523698358 0.2098927601 1
-82.1115996838 111.5560157299 -10.9619477106 0.087874555 1
-78.556047678 111.5560157299 -11.0578190911 0.3896258236 1
-75.0004956722 111.5560157299 -11.0151794383 0.2299823469 1
-71.4449436665 111.5560157299 -11.0139923584 0.321406675 1
-67.8893916607 111.5560157299 0 -0 0
-64.3338396549 111.5560157299 0 -0 0
-60.7782876492 111.5560157299 -10.8684626614 0.5617630166 1
-57.2227356434 111.5560157299 -11.0506300263 0.4861218441 1
-53.6671836376 111.5560157299 -10.9204607711 0.7382723759 1
-50.1116316319 111.5560157299 -10.7496608777 0.7911493848 1
-46.5560796261 111.5560157299 -10.7722748217 0.7590492726 1
-43.0005276203 111.5560157299 -10.6333349217 0.7966068737 1
-39.4449756145 111.5560157299 -10.6802195666 1.031347631 1
-35.8894236088 111.5560157299 -10.6652951511 0.9970259503 1
-32.333871603 111.5560157299 -10.2086073223 1.1831857485 1
-28.7783195972 111.5560157299 -9.954830686 0.9893884192 1
-25.2227675915 111.5560157299 -10.4527448409 1.063947849 1
-21.6672155857 111.5560157299 -10.2666403515 1.0008771583 1
-18.1116635799 111.5560157299 -10.1958372635 1.2353451307 1
-14.5561115742 111.5560157299 -9.9592825937 1.1562553944 1
-11.0005595684 111.5560157299 -9.7277583361 1.2058058677 1
-7.4450075626 111.5560157299 -10.1241084251 1.1328757194 1
-3.8894555569 111.5560157299 -9.8223932347 1.027335598 1
-0.3339035511 111.5560157299 -9.784786142 1.0219588348 1
3.2216484547 111.5560157299 -9.6635164063 0.997958055 1
6.7772004604 111.5560157299 -9.6512489593 1.0530664323 1
10.3327524662 111.5560157299 -9.5000587955 0.8038120479 1
13.888304472 111.5560157299 0 -0 0
17.4438564777 111.5560157299 0 -0 0
20.9994084835 111.5560157299 0 -0 0
24.5549604893 111.5560157299 0 -0 0
28.110512495 111.5560157299 0 -0 0
31.6660645008 111.5560157299 0 -0 0
35.2216165066 111.5560157299 -9.0125476992 0.6773696902 1
38.7771685123 111.5560157299 -9.4582553969 0.7220727714 1
42.3327205181 111.5560157299 -9.1523403206 0.4610746727 1
45.8882725239 111.5560157299 -9.0148824807 0.4555923932 1
49.4438245296 111.5560157299 -9.1607587076 0.6000567254 1
52.9993765354 111.5560157299 0 -0 0
-124.778223753 108.0004637241 -10.2067415018 -0.5252035685 1
-121.2226717472 108.0004637241 -10.489156978 -0.5398914003 1
-117.6671197414 108.0004637241 -10.5331784548 -0.5305618954 1
-114.1115677357 108.0004637241 -10.8263048571 -0.4229800485 1
-110.5560157299 108.0004637241 -10.6784683015 -0.5125331192 1
-107.0004637241 108.0004637241 -10.703414879 -0.4328237995 1
-103.4449117184 108.0004637241 -10.7541607554 -0.3201485797 1
-99.8893597126 108.0004637241 -10.9787143194 -0.3429535537 1
-96.3338077068 108.0004637241 -10.8299985515 -0.0279157092 1
-92.7782557011 108.0004637241 -10.8478656077 -0.1291290277 1
-89.2227036953 108.0004637241 -10.9840790901 -0.097440073 1
-85.6671516895 108.0004637241 -11.0880273394 0.0548153101 1
-82.1115996838 108.0004637241 -11.189650831 0.2044236143 1
-78.556047678 108.0004637241 -11.3396875654 0.3838707145 1
-75.0004956722 108.0004637241 -11.1981801935 0.3524221135 1
-71.4449436665 108.0004637241 -11.2259856431 0.471730827 1
-67.8893916607 108.0004637241 0 -0 0
-64.3338396549 108.0004637241 0 -0 0
-60.7782876492 108.0004637241 -10.7094483666 0.7271587609 1
-57.2227356434 108.0004637241 -10.842181514 0.6995712349 1
-53.6671836376 108.0004637241 -10.814507087 0.684020658 1
-50.1116316319 108.0004637241 -10.7464339964 0.8023574633 1
-46.5560796261 108.0004637241 -10.6703942966 0.9713702035 1
-43.0005276203 108.0004637241 -10.5551007708 0.9759426628 1
-39.4449756145 108.0004637241 -10.7659026798 0.9071391029 1
-35.8894236088 108.0004637241 -10.5565899905 1.0203995395 1
-32.333871603 108.0004637241 -10.8839190433 1.1355423534 1
-28.7783195972 108.0004637241 -10.5282511424 1.1917680929 1
-25.2227675915 108.0004637241 -10.108755859 1.146575019 1
-21.6672155857 108.0004637241 -10.1266680214 1.3136650192 1
-18.1116635799 108.0004637241 -10.164101849 1.210945555 1
-14.5561115742 108.0004637241 -9.9593656463 1.316432784 1
-11.0005595684 108.0004637241 -10.1210777198 1.1793835845 1
-7.4450075626 108.0004637241 -9.9266328842 1.0859759497 1
-3.8894555569 108.0004637241 -9.8580242474 1.0722085434 1
-0.3339035511 108.0004637241 -9.5933455208 1.2346487594 1
3.2216484547 108.0004637241 -9.7861915931 0.977618035 1
6.7772004604 108.0004637241 -9.5088559312 0.9346777639 1
10.3327524662 108.0004637241 -9.6804512684 1.0655748036 1
13.888304472 108.0004637241 0 -0 0
17.4438564777 108.0004637241 0 -0 0
20.9994084835 108.0004637241 0 -0 0
24.5549604893 108.0004637241 0 -0 0
28.110512495 108.0004637241 0 -0 0
31.6660645008 108.0004637241 0 -0 0
35.2216165066 108.0004637241 -9.3805575082 0.6719236568 1
38.7771685123 108.0004637241 -9.2793349604 0.4038020494 1
42.3327205181 108.0004637241 -9.2492047529 0.5047843441 1
45.8882725239 108.0004637241 -9.3711883117 0.5320278908 1
49.4438245296 108.0004637241 -9.3601072286 0.6621620634 1
52.9993765354 108.0004637241 0 -0 0
-124.778223753 104.4449117184 -10.2060104954 -0.5962582308 1
-121.2226717472 104.4449117184 -10.4770119619 -0.7167886369 1
-117.6671197414 104.4449117184 -10.5911112481 -0.6273909319 1
-114.1115677357 104.4449117184 -10.6908832386 -0.5741689145 1
-110.5560157299 104.4449117184 -10.7966421786 -0.4644498047 1
-107.0004637241 104.4449117184 -10.7112483177 -0.3963150064 1
-103.4449117184 104.4449117184 -10.9092407896 -0.3594161433 1
-99.8893597126 104.4449117184 -11.0219210212 -0.3997689847 1
-96.3338077068 104.4449117184 -11.1043686615 -0.3964246842 1
-92.7782557011 104.4449117184 -11.0657098075 -0.2243380567 1
-89.2227036953 104.4449117184 -11.2084708446 -0.0232153596 1
-85.6671516895 104.4449117184 -11.2010362018 -0.0092930169 1
-82.1115996838 104.4449117184 -11.3407250074 0.1659065225 1
-78.556047678 104.4449117184 -11.0442091984 0.2413091424 1
-75.0004956722 104.4449117184 -11.3353294499 0.1549019028 1
-71.4449436665 104.4449117184 -11.3233519711 0.3887788299 1
-67.8893916607 104.4449117184 0 -0 0
-64.3338396549 104.4449117184 0 -0 0
-60.7782876492 104.4449117184 -11.0374855147 0.92847835 1
-57.2227356434 104.4449117184 -11.0621399761 0.7411645855 1
-53.6671836376 104.4449117184 -10.9189758472 0.9801347625 1
-50.1116316319 104.4449117184 -10.8593590901 1.0240242322 1
-46.5560796261 104.4449117184 -10.861190544 1.1952444005 1
-43.0005276203 104.4449117184 -10.8989687537 1.0289647006 1
-39.4449756145 104.4449117184 -10.6199577196 0.9024475239 1
-35.8894236088 104.4449117184 -10.549146756 1.0361470531 1
-32.333871603 104.4449117184 -10.2500863861 1.1135280351 1
-28.7783195972 104.4449117184 -10.1187995001 1.1916683044 1
-25.2227675915 104.4449117184 -10.2237873394 1.2582032208 1
-21.6672155857 104.4449117184 -10.2013896186 1.3676933541 1
-18.1116635799 104.4449117184 -10.3016463215 1.1533906154 1
-14.5561115742 104.4449117184 -10.0320574658 1.4358213954 1
-11.0005595684 104.4449117184 -9.8617938347 1.1177779495 1
-7.4450075626 104.4449117184 -9.9438519867 1.1811153394 1
-3.8894555569 104.4449117184 -9.7802404422 1.2732549001 1
-0.3339035511 104.4449117184 -9.6083365215 1.0076540028 1
3.2216484547 104.4449117184 -9.6863637569 1.1120893809 1
6.7772004604 104.4449117184 -9.4579926355 1.1097949624 1
10.3327524662 104.4449117184 -9.4506324537 1.0137636518 1
13.888304472 104.4449117184 -8.54431627 0.9130706541 1
17.4438564777 104.4449117184 0 -0 0
20.9994084835 104.4449117184 0 -0 0
24.5549604893 104.4449117184 0 -0 0
28.110512495 104.4449117184 0 -0 0
31.6660645008 104.4449117184 0 -0 0
35.2216165066 104.4449117184 -9.001543941 0.5367465424 1
38.7771685123 104.4449117184 -8.9132403739 0.5122105743 1
42.3327205181 104.4449117184 -8.874281528 0.6049611267 1
45.8882725239 104.4449117184 -8.894944451 0.5501823199 1
49.4438245296 104.4449117184 -9.1315871853 0.3483141628 1
52.9993765354 104.4449117184 0 -0 0
-124.778223753 100.8893597126 -10.4837363616 -0.7574989269 1
-121.2226717472 100.8893597126 -10.625033954 -0.8385089869 1
-117.6671197414 100.8893597126 -10.7241708782 -0.7593103335 1
-114.1115677357 100.8893597126 -10.6916772505 -0.6195793751 1
-110.5560157299 100.8893597126 -10.8070402254 -0.7176336169 1
-107.0004637241 100.8893597126 -10.9121104013 -0.4792758636 1
-103.4449117184 100.8893597126 -10.9310084558 -0.4119234426 1
-99.8893597126 100.8893597126 -10.9524890177 -0.3737909839 1
-96.3338077068 100.8893597126 -11.2125332641 -0.213148146 1
-92.7782557011 100.8893597126 -11.2088374218 -0.3013537593 1
-89.2227036953 100.8893597126 -11.0755945031 -0.0771421498 1
-85.6671516895 100.8893597126 -11.28921161 0.0919073344 1
-82.1115996838 100.8893597126 -11.3346779163 -0.0106696865 1
-78.556047678 100.8893597126 -11.3267836201 0.2131594673 1
-75.0004956722 100.8893597126 -11.2797658047 0.2714342038 1
-71.4449436665 100.8893597126 -11.2604753981 0.3843398097 1
-67.8893916607 100.8893597126 0 -0 0
-64.3338396549 100.8893597126 0 -0 0
-60.7782876492 100.8893597126 -11.0856087894 0.6386873433 1
-57.2227356434 100.8893597126 -10.9931432829 0.9004392253 1
-53.6671836376 100.8893597126 -10.9122364122 0.8742074798 1
-50.1116316319 100.8893597126 -10.9726579207 1.0617894649 1
-46.5560796261 100.8893597126 -11.0504932758 1.2474109424 1
-43.0005276203 100.8893597126 -10.8063299822 1.0637947207 1
-39.4449756145 100.8893597126 -10.6484590931 1.0546863166 1
-35.8894236088 100.8893597126 -10.6967821237 1.0922976156 1
-32.333871603 100.8893597126 -10.6823689115 1.324025567 1
-28.7783195972 100.8893597126 -10.5785001349 1.1051518904 1
-25.2227675915 100.8893597126 -10.4259217035 1.446114105 1
-21.6672155857 100.8893597126 -10.1824915641 1.2819301416 1
-18.1116635799 100.8893597126 -10.2361908209 1.4434468446 1
-14.5561115742 100.8893597126 -9.8100055045 1.1908671328 1
-11.0005595684 100.8893597126 -9.9867493891 1.3204679966 1
-7.4450075626 100.8893597126 -9.9018846307 1.5403892282 1
-3.8894555569 100.8893597126 -9.7977409213 1.3026975964 1
-0.3339035511 100.8893597126 -9.5244039574 1.4479734817 1
3.2216484547 100.8893597126 -9.5849901392 1.0961992996 1
6.7772004604 100.8893597126 -9.3466505537 1.3922813196 1
10.3327524662 100.8893597126 -9.3500041618 1.1290672907 1
13.888304472 100.8893597126 -9.4677427286 1.3218585913 1
17.4438564777 100.8893597126 0 -0 0
20.9994084835 100.8893597126 0 -0 0
24.5549604893 100.8893597126 0 -0 0
28.110512495 100.8893597126 0 -0 0
31.6660645008 100.8893597126 0 -0 0
35.2216165066 100.8893597126 -8.8920118338 0.6657443348 1
38.7771685123 100.8893597126 -9.1415663891 0.6071935243 1
42.3327205181 100.8893597126 -9.1751776476 0.4458506234 1
45.8882725239 100.8893597126 -9.0042474475 0.5150910151 1
49.4438245296 100.8893597126 -8.8294860865 0.5024309474 1
52.9993765354 100.8893597126 0 -0 0
-124.778223753 97.3338077068 -10.3602571393 -0.8217667211 1
-121.2226717472 97.3338077068 -10.6584368649 -0.9579945229 1
-117.6671197414 97.3338077068 -10.5386005032 -0.8417332728 1
-114.1115677357 97.3338077068 -11.0510524492 -0.7725968758 1
-110.5560157299 97.3338077068 -11.0886452224 -0.6461357686 1
-107.0004637241 97.3338077068 -10.9465228314 -0.6075662767 1
-103.4449117184 97.3338077068 -10.9727953872 -0.5505136803 1
-99.8893597126 97.3338077068 -11.196709589 -0.4530378087 1
-96.3338077068 97.3338077068 -11.1931905916 -0.5062718186 1
-92.7782557011 97.3338077068 -11.2395611692 -0.4033466918 1
-89.2227036953 97.3338077068 -11.2932668698 -0.2379784453 1
-85.6671516895 97.3338077068 -11.2242587211 -0.1517829877 1
-82.1115996838 97.3338077068 -11.4863241536 0.0243344223 1
-78.556047678 97.3338077068 -11.4399635995 0.1315487859 1
-75.0004956722 97.3338077068 -11.4639923022 0.4313275544 1
-71.4449436665 97.3338077068 -11.5108640595 0.5393180418 1
-67.8893916607 97.3338077068 0 -0 0
-64.3338396549 97.3338077068 0 -0 0
-60.7782876492 97.3338077068 -11.2827542676 0.9369981364 1
-57.2227356434 97.3338077068 -11.2494358412 0.9405766489 1
-53.6671836376 97.3338077068 -11.2089483973 0.9075714599 1
-50.1116316319 97.3338077068 -10.9924072647 1.0143414404 1
-46.5560796261 97.3338077068 -11.0761823152 1.0749357664 1
-43.0005276203 97.3338077068 -10.7699579395 1.2293257835 1
-39.4449756145 97.3338077068 -10.7074114291 1.2117392089 1
-35.8894236088 97.3338077068 -10.6469133117 1.1256182794 1
-32.333871603 97.3338077068 -10.8222137988 1.2748340636 1
-28.7783195972 97.3338077068 -10.4582427822 1.1791977005 1
-25.2227675915 97.3338077068 -10.2779884918 1.2544169871 1
-21.6672155857 97.3338077068 -10.2898249244 1.3532097978 1
-18.1116635799 97.3338077068 -10.187333676 1.4012493934 1
-14.5561115742 97.3338077068 -9.9500265206 1.3519764483 1
-11.0005595684 97.3338077068 -10.2545490333 1.5558747859 1
-7.4450075626 97.3338077068 -9.9996676538 1.265208818 1
-3.8894555569 97.3338077068 -9.9175980462 1.3573302109 1
-0.3339035511 97.3338077068 -9.5300637081 1.4204189799 1
3.2216484547 97.3338077068 -9.4869085562 1.4331084918 1
6.7772004604 97.3338077068 -9.4626664942 1.3724052488 1
10.3327524662 97.3338077068 -9.2367976915 1.1679854157 1
13.888304472 97.3338077068 -9.4542939294 0.9966987516 1
17.4438564777 97.3338077068 0 -0 0
20.9994084835 97.3338077068 0 -0 0
24.5549604893 97.3338077068 0 -0 0
28.110512495 97.3338077068 0 -0 0
31.6660645008 97.3338077068 0 -0 0
35.2216165066 97.3338077068 -8.7558871318 0.5842002052 1
38.7771685123 97.3338077068 -8.8512938472 0.7103930917 1
42.3327205181 97.3338077068 -8.8423427778 0.4675151898 1
45.8882725239 97.3338077068 -8.9100722022 0.2239773416 1
49.4438245296 97.3338077068 -8.8527823509 0.4443656995 1
52.9993765354 97.3338077068 0 -0 0
-124.778223753 93.7782557011 -10.3733236101 -1.1316591952 1
-121.2226717472 93.7782557011 -10.7178130558 -1.0511664242 1
-117.6671197414 93.7782557011 -10.6443823542 -0.9741055707 1
-114.1115677357 93.7782557011 -10.7560544987 -0.8927512182 1
-110.5560157299 93.7782557011 -11.1493466756 -0.633432161 1
-107.0004637241 93.7782557011 -10.9732063545 -0.7741367504 1
-103.4449117184 93.7782557011 -11.0536800628 -0.4905409513 1
-99.8893597126 93.7782557011 -11.1164155895 -0.4979595296 1
-96.3338077068 93.7782557011 -11.356335323 -0.5221063675 1
-92.7782557011 93.7782557011 -11.2880538849 -0.2859629782 1
-89.2227036953 93.7782557011 -11.381492396 -0.2430118557 1
-85.6671516895 93.7782557011 -11.2549860484 -0.1823907479 1
-82.1115996838 93.7782557011 -11.5815468644 -0.0310576752 1
-78.556047678 93.7782557011 -11.4882773224 0.1457684062 1
-75.0004956722 93.7782557011 -11.5437020693 0.1247000982 1
-71.4449436665 93.7782557011 -11.6758065942 0.4054748709 1
-67.8893916607 93.7782557011 0 -0 0
-64.3338396549 93.7782557011 -11.209942165 0.9365984456 1
-60.7782876492 93.7782557011 -11.3420588613 0.8679603644 1
-57.2227356434 93.7782557011 -10.8770063433 0.9432039045 1
-53.6671836376 93.7782557011 -11.2572621202 1.2045880906 1
-50.1116316319 93.7782557011 -11.0045981029 1.1692711206 1
-46.5560796261 93.7782557011 -10.9231456623 1.2895332167 1
-43.0005276203 93.7782557011 -10.7550227845 1.3524322533 1
-39.4449756145 93.7782557011 -10.989685143 1.0752268981 1
-35.8894236088 93.7782557011 -10.6164065035 1.2286559926 1
-32.333871603 93.7782557011 -10.8709635481 1.5175662207 1
-28.7783195972 93.7782557011 -10.4639433433 1.2331505901 1
-25.2227675915 93.7782557011 -10.332221147 1.3652010591 1
-21.6672155857 93.7782557011 -10.199750045 1.5727770713 1
-18.1116635799 93.7782557011 -10.127318123 1.4884637896 1
-14.5561115742 93.7782557011 -10.2857668007 1.3939700267 1
-11.0005595684 93.7782557011 -9.9421358043 1.5091630481 1
-7.4450075626 93.7782557011 -9.7854140486 1.5772042779 1
-3.8894555569 93.7782557011 -9.7404546498 1.3380356875 1
-0.3339035511 93.7782557011 -9.6456844327 1.3145561346 1
3.2216484547 93.7782557011 -9.5242077813 1.2775506365 1
6.7772004604 93.7782557011 -9.5644410556 1.5521356274 1
10.3327524662 93.7782557011 -9.2293630487 1.1575389514 1
13.888304472 93.7782557011 -9.1148699785 1.283587346 1
17.4438564777 93.7782557011 0 -0 0
20.9994084835 93.7782557011 0 -0 0
24.5549604893 93.7782557011 0 -0 0
28.110512495 93.7782557011 0 -0 0
31.6660645008 93.7782557011 0 -0 0
35.2216165066 93.7782557011 -8.7263740913 0.6384101731 1
38.7771685123 93.7782557011 -8.7636955115 0.6265606741 1
42.3327205181 93.7782557011 -8.7370606744 0.4523564728 1
45.8882725239 93.7782557011 -8.7060204678 0.2851003674 1
49.4438245296 93.7782557011 -8.804022578 0.4746534206 1
52.9993765354 93.7782557011 0 -0 0
-124.778223753 90.2227036953 -10.1816911086 -1.2087192432 1
-121.2226717472 90.2227036953 -10.4824225548 -1.3327852036 1
-117.6671197414 90.2227036953 -10.6529453674 -1.0056571597 1
-114.1115677357 90.2227036953 -10.6841416557 -0.8353068961 1
-110.5560157299 90.2227036953 -10.8793948226 -0.6450881688 1
-107.0004637241 90.2227036953 -10.9374593545 -0.5179228147 1
-103.4449117184 90.2227036953 -10.9816397769 -0.3177964807 1
-99.8893597126 90.2227036953 -10.9511215131 -0.5226331879 1
-96.3338077068 90.2227036953 -11.0119103147 -0.5671221937 1
-92.7782557011 90.2227036953 -11.3839560522 -0.5649214331 1
-89.2227036953 90.2227036953 -11.4588237075 -0.4426230261 1
-85.6671516895 90.2227036953 -11.5416794513 -0.2645658941 1
-82.1115996838 90.2227036953 -11.7695164582 -0.285499745 1
-78.556047678 90.2227036953 -12.0785338368 0.074636956 1
-75.0004956722 90.2227036953 -11.7081649034 0.2064162958 1
-71.4449436665 90.2227036953 -11.9725185792 0.3860512937 1
-67.8893916607 90.2227036953 0 -0 0
-64.3338396549 90.2227036953 -11.631498729 0.635147717 1
-60.7782876492 90.2227036953 -11.5489823555 1.0276116944 1
-57.2227356434 90.2227036953 -11.4299686444 1.2508772265 1
-53.6671836376 90.2227036953 -11.3127219497 1.2271528115 1
-50.1116316319 90.2227036953 -11.1443048078 1.1774801756 1
-46.5560796261 90.2227036953 -11.0566885729 1.2117315122 1
-43.0005276203 90.2227036953 -10.9648538368 1.2626390191 1
-39.4449756145 90.2227036953 -10.7916167782 1.3735275333 1
-35.8894236088 90.2227036953 -10.2727117856 1.389668831 1
-32.333871603 90.2227036953 -10.7232995415 1.3166381782 1
-28.7783195972 90.2227036953 -10.3163129874 1.4831112799 1
-25.2227675915 90.2227036953 -10.5688015918 1.7178497998 1
-21.6672155857 90.2227036953 -10.4858663753 1.4859830395 1