TITLE = "B00002"
VARIABLES = "x", "y", "Vx", "Vy", "isValid"
ZONE T="Frame 0", I=51, J=39, F=POINT
-124.778223753 125.778223753 0.4310975487 0.2926153332 1
-121.2226717472 125.778223753 0.3135790983 0.1860403093 1
-117.6671197414 125.778223753 0.2647705275 0.1927910321 1
-114.1115677357 125.778223753 0.2657369541 0.2013594821 1
-110.5560157299 125.778223753 0.3842811449 0.3012803499 1
-107.0004637241 125.778223753 0.3136587501 0.2157656464 1
-103.4449117184 125.778223753 0.2065026374 0.2693264747 1
-99.8893597126 125.778223753 0.1840652474 0.2440969544 1
-96.3338077068 125.778223753 0.3056794547 0.1898845254 1
-92.7782557011 125.778223753 0.2295537041 0.2052354582 1
-89.2227036953 125.778223753 0.2649011475 0.3555906208 1
-85.6671516895 125.778223753 0.3816350503 0.2391432182 1
-82.1115996838 125.778223753 0.3986028917 0.2251859677 1
-78.556047678 125.778223753 0.2993924686 0.3218432383 1
-75.0004956722 125.778223753 0.2698516394 0.321014032 1
-71.4449436665 125.778223753 0.2895631936 0.2999942422 1
-67.8893916607 125.778223753 0 -0 0
-64.3338396549 125.778223753 0 -0 0
-60.7782876492 125.778223753 0 -0 0
-57.2227356434 125.778223753 0.5441282929 0.3048083193 1
-53.6671836376 125.778223753 0.3983084487 0.295826575 1
-50.1116316319 125.778223753 0.4175582239 0.1253456803 1
-46.5560796261 125.778223753 0.4468019698 0.2542052791 1
-43.0005276203 125.778223753 0.5313549228 0.3545883733 1
-39.4449756145 125.778223753 0.5286029093 0.237925016 1
-35.8894236088 125.778223753 0.4756752455 0.3257175587 1
-32.333871603 125.778223753 0.3705202941 0.3112417215 1
-28.7783195972 125.778223753 0.4633463592 0.425257776 1
-25.2227675915 125.778223753 0.480253701 0.1619014031 1
-21.6672155857 125.778223753 0.6189792572 0.266326243 1
-18.1116635799 125.778223753 0.3689057348 0.2386077167 1
-14.5561115742 125.778223753 0.3016600382 0.3705789143 1
-11.0005595684 125.778223753 0.3821751609 0.3963944344 1
-7.4450075626 125.778223753 0.3392463901 0.352604261 1
-3.8894555569 125.778223753 0.4332464462 0.3350373085 1
-0.3339035511 125.778223753 0.6382497508 0.3304786092 1
3.2216484547 125.778223753 0.4697425308 0.2427356698 1
6.7772004604 125.778223753 0.4076678453 0.3689341946 1
10.3327524662 125.778223753 0.2298224393 0.3166816467 1
13.888304472 125.778223753 0 -0 0
17.4438564777 125.778223753 0 -0 0
20.9994084835 125.778223753 0 -0 0
24.5549604893 125.778223753 0 -0 0
28.110512495 125.778223753 0 -0 0
31.6660645008 125.778223753 0 -0 0
35.2216165066 125.778223753 0 -0 0
38.7771685123 125.778223753 0.350271359 0.2253298779 1
42.3327205181 125.778223753 0.3447435707 0.2726016393 1
45.8882725239 125.778223753 0.3881815311 0.3919309817 1
49.4438245296 125.778223753 0.4883426966 0.4198224822 1
52.9993765354 125.778223753 0 -0 0
-124.778223753 122.2226717472 0.4614327477 0.3117061182 1
-121.2226717472 122.2226717472 0.2706203909 0.2880394731 1
-117.6671197414 122.2226717472 0.4618745018 0.1829489703 1
-114.1115677357 122.2226717472 0.1827729757 0.2313738813 1
-110.5560157299 122.2226717472 0.3602170464 0.2853077305 1
-107.0004637241 122.2226717472 0.2676947768 0.2215358805 1
-103.4449117184 122.2226717472 0.3582289292 0.2077961061 1
-99.8893597126 122.2226717472 0.2781727215 0.1718529189 1
-96.3338077068 122.2226717472 0.1929513425 0.173263516 1
-92.7782557011 122.2226717472 0.3180222353 0.3013218314 1
-89.2227036953 122.2226717472 0.2577732535 0.2592217075 1
-85.6671516895 122.2226717472 0.3363095666 0.2918630491 1
-82.1115996838 122.2226717472 0.3154953499 0.2552447795 1
-78.556047678 122.2226717472 0.2503733352 0.1651154193 1
-75.0004956722 122.2226717472 0.2013770234 0.1504950901 1
-71.4449436665 122.2226717472 0.3150680047 0.2914001962 1
-67.8893916607 122.2226717472 0 -0 0
-64.3338396549 122.2226717472 0 -0 0
-60.7782876492 122.2226717472 0 -0 0
-57.2227356434 122.2226717472 0.3917290332 0.2677778742 1
-53.6671836376 122.2226717472 0.4718854768 0.1915296254 1
-50.1116316319 122.2226717472 0.2971018536 0.1885891997 1
-46.5560796261 122.2226717472 0.2757500323 0.2327755064 1
-43.0005276203 122.2226717472 0.4257606114 0.3301108015 1
-39.4449756145 122.2226717472 0.4197035415 0.2627885632 1
-35.8894236088 122.2226717472 0.3138962511 0.2779996355 1
-32.333871603 122.2226717472 0.4150167953 0.4000248101 1
-28.7783195972 122.2226717472 0.5041754555 0.4452651828 1
-25.2227675915 122.2226717472 0.4097251432 0.4499487071 1
-21.6672155857 122.2226717472 0.3298861656 0.2703429074 1
-18.1116635799 122.2226717472 0.3583222291 0.2399180331 1
-14.5561115742 122.2226717472 0.1960518772 0.3893525017 1
-11.0005595684 122.2226717472 0.4249945224 0.419296512 1
-7.4450075626 122.2226717472 0.3394455866 0.4112919562 1
-3.8894555569 122.2226717472 0.3691055355 0.3170128057 1
-0.3339035511 122.2226717472 0.4061364728 0.3262513822 1
3.2216484547 122.2226717472 0.3018948096 0.283132633 1
6.7772004604 122.2226717472 0.30304759 0.1987425858 1
10.3327524662 122.2226717472 0.331799531 0.323455784 1
13.888304472 122.2226717472 0 -0 0
17.4438564777 122.2226717472 0 -0 0
20.9994084835 122.2226717472 0 -0 0
24.5549604893 122.2226717472 0 -0 0
28.110512495 122.2226717472 0 -0 0
31.6660645008 122.2226717472 0 -0 0
35.2216165066 122.2226717472 0 -0 0
38.7771685123 122.2226717472 0.3787830246 0.2419591545 1
42.3327205181 122.2226717472 0.3152361013 0.2928722326 1
45.8882725239 122.2226717472 0.3226738541 0.3306364585 1
49.4438245296 122.2226717472 0.3562709275 0.413364916 1
52.9993765354 122.2226717472 0 -0 0
-124.778223753 118.6671197414 0.2923112246 0.2532841153 1
-121.2226717472 118.6671197414 0.2977465855 0.2904911815 1
-117.6671197414 118.6671197414 0.3340249031 0.1941315088 1
-114.1115677357 118.6671197414 0.3179622056 0.2257708042 1
-110.5560157299 118.6671197414 0.2599426232 0.2553513921 1
-107.0004637241 118.6671197414 0.3915418515 0.195756226 1
-103.4449117184 118.6671197414 0.3278131835 0.2072826207 1
-99.8893597126 118.6671197414 0.2381965927 0.212098264 1
-96.3338077068 118.6671197414 0.2911722937 0.3460326764 1
-92.7782557011 118.6671197414 0.3059754416 0.28800759 1
-89.2227036953 118.6671197414 0.4297328185 0.2446390564 1
-85.6671516895 118.6671197414 0.1930587829 0.3191786404 1
-82.1115996838 118.6671197414 0.2430361987 0.2802695321 1
-78.556047678 118.6671197414 0.2765557458 0.2216974662 1
-75.0004956722 118.6671197414 0.305326481 0.1657779721 1
-71.4449436665 118.6671197414 0.1490753979 0.296187581 1
-67.8893916607 118.6671197414 0 -0 0
-64.3338396549 118.6671197414 0 -0 0
-60.7782876492 118.6671197414 0.6844308199 0.2734844315 1
-57.2227356434 118.6671197414 0.4253726894 0.2492218077 1
-53.6671836376 118.6671197414 0.4918489856 0.2851147539 1
-50.1116316319 118.6671197414 0.3620853279 0.3031453872 1
-46.5560796261 118.6671197414 0.3246136433 0.2821217938 1
-43.0005276203 118.6671197414 0.4236554329 0.368448028 1
-39.4449756145 118.6671197414 0.3991262218 0.2809809164 1
-35.8894236088 118.6671197414 0.4324159646 0.4664381009 1
-32.333871603 118.6671197414 0.6164849932 0.4431720864 1
-28.7783195972 118.6671197414 0.4658092994 0.3491117097 1
-25.2227675915 118.6671197414 0.4651105564 0.1952940891 1
-21.6672155857 118.6671197414 0.3636099211 0.4642147872 1
-18.1116635799 118.6671197414 0.5974769477 0.1855536728 1
-14.5561115742 118.6671197414 0.2587858378 0.1914811184 1
-11.0005595684 118.6671197414 0.2329550138 0.2944788267 1
-7.4450075626 118.6671197414 0.4087439497 0.2194625627 1
-3.8894555569 118.6671197414 0.3762685344 0.4210712251 1
-0.3339035511 118.6671197414 0.5360002769 0.2840854785 1
3.2216484547 118.6671197414 0.3580252802 0.3689483798 1
6.7772004604 118.6671197414 0.3393574327 0.2392504796 1
10.3327524662 118.6671197414 0.4740028715 0.3270346098 1
13.888304472 118.6671197414 0 -0 0
17.4438564777 118.6671197414 0 -0 0
20.9994084835 118.6671197414 0 -0 0
24.5549604893 118.6671197414 0 -0 0
28.110512495 118.6671197414 0 -0 0
31.6660645008 118.6671197414 0 -0 0
35.2216165066 118.6671197414 0 -0 0
38.7771685123 118.6671197414 0.4750717714 0.2893793681 1
42.3327205181 118.6671197414 0.361046096 0.3443201633 1
45.8882725239 118.6671197414 0.3549367603 0.4925697446 1
49.4438245296 118.6671197414 0.3222118067 0.2975778625 1
52.9993765354 118.6671197414 0 -0 0
-124.778223753 115.1115677357 0.3648849983 0.2400599967 1
-121.2226717472 115.1115677357 0.2702511513 0.1953503375 1
-117.6671197414 115.1115677357 0.3466018734 0.2094269986 1
-114.1115677357 115.1115677357 0.2773751298 0.2675628144 1
-110.5560157299 115.1115677357 0.1933085001 0.1741791646 1
-107.0004637241 115.1115677357 0.3293022689 0.3527790698 1
-103.4449117184 115.1115677357 0.2689253743 0.1928848914 1
-99.8893597126 115.1115677357 0.1746508441 0.1868444119 1
-96.3338077068 115.1115677357 0.2066614935 0.337295123 1
-92.7782557011 115.1115677357 0.3239842601 0.4219384897 1
-89.2227036953 115.1115677357 0.2936240021 0.2407405048 1
-85.6671516895 115.1115677357 0.2371919512 0.2740683059 1
-82.1115996838 115.1115677357 0.3024671837 0.2332017105 1
-78.556047678 115.1115677357 0.2086312863 0.3324972224 1
-75.0004956722 115.1115677357 0.2955761418 0.2376815858 1
-71.4449436665 115.1115677357 0.2645045667 0.2280764321 1
-67.8893916607 115.1115677357 0 -0 0
-64.3338396549 115.1115677357 0 -0 0
-60.7782876492 115.1115677357 0.3834756775 0.1824826718 1
-57.2227356434 115.1115677357 0.3482368827 0.3820915713 1
-53.6671836376 115.1115677357 0.431863056 0.3185503311 1
-50.1116316319 115.1115677357 0.467608624 0.4351552248 1
-46.5560796261 115.1115677357 0.3695430161 0.327224879 1
-43.0005276203 115.1115677357 0.4492283955 0.2647818041 1
-39.4449756145 115.1115677357 0.3812481127 0.1780076741 1
-35.8894236088 115.1115677357 0.5085568848 0.3486114026 1
-32.333871603 115.1115677357 0.3731098046 0.437711823 1
-28.7783195972 115.1115677357 0.5768069097 0.2322323977 1
-25.2227675915 115.1115677357 0.5025811224 0.3102957224 1
-21.6672155857 115.1115677357 0.3901493774 0.3190188446 1
-18.1116635799 115.1115677357 0.3376394603 0.4022892922 1
-14.5561115742 115.1115677357 0.6338488561 0.4023729265 1
-11.0005595684 115.1115677357 0.2588860514 0.2622186279 1
-7.4450075626 115.1115677357 0.2872644345 0.305100346 1
-3.8894555569 115.1115677357 0.1691174175 0.4913695535 1
-0.3339035511 115.1115677357 0.4438213378 0.2897162548 1
3.2216484547 115.1115677357 0.3634419811 0.277982318 1
6.7772004604 115.1115677357 0.2424704697 0.1924325767 1
10.3327524662 115.1115677357 0.352549355 0.1867305837 1
13.888304472 115.1115677357 0 -0 0
17.4438564777 115.1115677357 0 -0 0
20.9994084835 115.1115677357 0 -0 0
24.5549604893 115.1115677357 0 -0 0
28.110512495 115.1115677357 0 -0 0
31.6660645008 115.1115677357 0 -0 0
35.2216165066 115.1115677357 0.3328912301 0.2672557747 1
38.7771685123 115.1115677357 0.5580513334 0.3401609983 1
42.3327205181 115.1115677357 0.4359745642 0.3818188311 1
45.8882725239 115.1115677357 0.2701147588 0.3837061754 1
49.4438245296 115.1115677357 0.5989469704 0.2826962934 1
52.9993765354 115.1115677357 0 -0 0
-124.778223753 111.5560157299 0.5795299264 0.317321613 1
-121.2226717472 111.5560157299 0.3680799965 0.1889312772 1
-117.6671197414 111.5560157299 0.329417048 0.2460041446 1
-114.1115677357 111.5560157299 0.4589798758 0.1981991638 1
-110.5560157299 111.5560157299 0.2924463193 0.2467311907 1
-107.0004637241 111.5560157299 0.3666936529 0.2537790303 1
-103.4449117184 111.5560157299 0.3413076706 0.1768957935 1
-99.8893597126 111.5560157299 0.232024162 0.2272175354 1
-96.3338077068 111.5560157299 0.3254240554 0.2503784141 1
-92.7782557011 111.5560157299 0.3235768949 0.32662362 1
-89.2227036953 111.5560157299 0.2530302812 0.2484262073 1
-85.6671516895 111.5560157299 0.2306874665 0.1766995727 1
-82.1115996838 111.5560157299 0.2119569269 0.32367373 1
-78.556047678 111.5560157299 0.3501512772 0.1929226141 1
-75.0004956722 111.5560157299 0.2556864217 0.2589231924 1
-71.4449436665 111.5560157299 0.3290768723 0.2248730884 1
-67.8893916607 111.5560157299 0 -0 0
-64.3338396549 111.5560157299 0 -0 0
-60.7782876492 111.5560157299 0.3100372793 0.1994065817 1
-57.2227356434 111.5560157299 0.329286786 0.2241250106 1
-53.6671836376 111.5560157299 0.30601793 0.2122119468 1
-50.1116316319 111.5560157299 0.4783313637 0.1972042773 1
-46.5560796261 111.5560157299 0.2847961468 0.3386109211 1
-43.0005276203 111.5560157299 0.4595474618 0.265048548 1
-39.4449756145 111.5560157299 0.2907931199 0.3155745766 1
-35.8894236088 111.5560157299 0.4934244798 0.5164306864 1
-32.333871603 111.5560157299 0.4430977596 0.2736468898 1
-28.7783195972 111.5560157299 0.542162326 0.4371164931 1
-25.2227675915 111.5560157299 0.3165721703 0.3896233177 1
-21.6672155857 111.5560157299 0.4813598762 0.266561171 1
-18.1116635799 111.5560157299 0.3950723045 0.3524241495 1
-14.5561115742 111.5560157299 0.3713675787 0.3926627488 1
-11.0005595684 111.5560157299 0.4726060121 0.2555154613 1
-7.4450075626 111.5560157299 0.3490109592 0.2753841711 1
-3.8894555569 111.5560157299 0.1937483972 0.3150096084 1
-0.3339035511 111.5560157299 0.4957748783 0.379981202 1
3.2216484547 111.5560157299 0.2712651004 0.1818317983 1
6.7772004604 111.5560157299 0.4826030256 0.2997397816 1
10.3327524662 111.5560157299 0.375520837 0.3716891839 1
13.888304472 111.5560157299 0 -0 0
17.4438564777 111.5560157299 0 -0 0
20.9994084835 111.5560157299 0 -0 0
24.5549604893 111.5560157299 0 -0 0
28.110512495 111.5560157299 0 -0 0
31.6660645008 111.5560157299 0 -0 0
35.2216165066 111.5560157299 0.5539673454 0.2883005564 1
38.7771685123 111.5560157299 0.3264937608 0.2682528091 1
42.3327205181 111.5560157299 0.3804303396 0.2622265483 1
45.8882725239 111.5560157299 0.4713476035 0.3437990259 1
49.4438245296 111.5560157299 0.3822481452 0.558271226 1
52.9993765354 111.5560157299 0 -0 0
-124.778223753 108.0004637241 0.6068639539 0.329676319 1
-121.2226717472 108.0004637241 0.4696958137 0.3307006274 1
-117.6671197414 108.0004637241 0.4969004742 0.3061301137 1
-114.1115677357 108.0004637241 0.3884906516 0.2905303138 1
-110.5560157299 108.0004637241 0.3623906896 0.3671144201 1
-107.0004637241 108.0004637241 0.435158223 0.2029353343 1
-103.4449117184 108.0004637241 0.2382938753 0.2682752951 1
-99.8893597126 108.0004637241 0.4034243747 0.3288933823 1
-96.3338077068 108.0004637241 0.5403023229 0.4134100669 1
-92.7782557011 108.0004637241 0.5150229084 0.3262412244 1
-89.2227036953 108.0004637241 0.2773010044 0.3085095985 1
-85.6671516895 108.0004637241 0.2335389552 0.2938378313 1
-82.1115996838 108.0004637241 0.2578042192 0.330509217 1
-78.556047678 108.0004637241 0.1496903611 0.1291977049 1
-75.0004956722 108.0004637241 0.17805749 0.2879575615 1
-71.4449436665 108.0004637241 0.2512434413 0.2267579492 1
-67.8893916607 108.0004637241 0 -0 0
-64.3338396549 108.0004637241 0 -0 0
-60.7782876492 108.0004637241 0.325080255 0.2266941606 1
-57.2227356434 108.0004637241 0.463967285 0.3826014322 1
-53.6671836376 108.0004637241 0.4030117964 0.2900799233 1
-50.1116316319 108.0004637241 0.3803448706 0.2384046494 1
-46.5560796261 108.0004637241 0.448988948 0.2619356404 1
-43.0005276203 108.0004637241 0.2150847133 0.2225366065 1
-39.4449756145 108.0004637241 0.3445702162 0.2145680283 1
-35.8894236088 108.0004637241 0.3059558642 0.2987525248 1
-32.333871603 108.0004637241 0.5371953667 0.2717113517 1
-28.7783195972 108.0004637241 0.5701199196 0.3443329389 1
-25.2227675915 108.0004637241 0.6761844897 0.3301258369 1
-21.6672155857 108.0004637241 0.5758007019 0.2785709804 1
-18.1116635799 108.0004637241 0.3295941613 0.4244006692 1
-14.5561115742 108.0004637241 0.458047771 0.3057776322 1
-11.0005595684 108.0004637241 0.4167838565 0.4411532271 1
-7.4450075626 108.0004637241 0.2016284859 0.2861031519 1
-3.8894555569 108.0004637241 0.5950836803 0.3119095882 1
-0.3339035511 108.0004637241 0.3299915924 0.2661689084 1
3.2216484547 108.0004637241 0.3489569929 0.2362568035 1
6.7772004604 108.0004637241 0.4258273309 0.2467670788 1
10.3327524662 108.0004637241 0.5075842829 0.2957128699 1
13.888304472 108.0004637241 0 -0 0
17.4438564777 108.0004637241 0 -0 0
20.9994084835 108.0004637241 0 -0 0
24.5549604893 108.0004637241 0 -0 0
28.110512495 108.0004637241 0 -0 0
31.6660645008 108.0004637241 0 -0 0
35.2216165066 108.0004637241 0.4433242302 0.3969358875 1
38.7771685123 108.0004637241 0.3305663157 0.2877357448 1
42.3327205181 108.0004637241 0.4947055309 0.5228946963 1
45.8882725239 108.0004637241 0.5145543949 0.2425668573 1
49.4438245296 108.0004637241 0.5228000539 0.3720509954 1
52.9993765354 108.0004637241 0 -0 0
-124.778223753 104.4449117184 0.5822438145 0.5836602288 1
-121.2226717472 104.4449117184 0.6313865871 0.3564181043 1
-117.6671197414 104.4449117184 0.4726243588 0.3245497205 1
-114.1115677357 104.4449117184 0.5328200232 0.4143711238 1
-110.5560157299 104.4449117184 0.4568970714 0.2205802158 1
-107.0004637241 104.4449117184 0.3377738615 0.3674196475 1
-103.4449117184 104.4449117184 0.3440952366 0.3896512406 1
-99.8893597126 104.4449117184 0.1073911749 0.2039088087 1
-96.3338077068 104.4449117184 0.3034101398 0.3888395085 1
-92.7782557011 104.4449117184 0.187250278 0.4638696445 1
-89.2227036953 104.4449117184 0.3547146526 0.2960087896 1
-85.6671516895 104.4449117184 0.4418161268 0.3193632714 1
-82.1115996838 104.4449117184 0.2514170643 0.3001506147 1
-78.556047678 104.4449117184 0.3591815062 0.3625311989 1
-75.0004956722 104.4449117184 0.4598570297 0.3320517318 1
-71.4449436665 104.4449117184 0.3334661549 0.2921110659 1
-67.8893916607 104.4449117184 0 -0 0
-64.3338396549 104.4449117184 0 -0 0
-60.7782876492 104.4449117184 0.5782238163 0.3952312053 1
-57.2227356434 104.4449117184 0.2705318566 0.2151637162 1
-53.6671836376 104.4449117184 0.2645115026 0.300387713 1
-50.1116316319 104.4449117184 0.2335363151 0.2037610726 1
-46.5560796261 104.4449117184 0.4473005094 0.5092189342 1
-43.0005276203 104.4449117184 0.3152320068 0.2713696993 1
-39.4449756145 104.4449117184 0.4578765645 0.2359082823 1
-35.8894236088 104.4449117184 0.4237053271 0.3971729187 1
-32.333871603 104.4449117184 0.5784686336 0.4087405488 1
-28.7783195972 104.4449117184 0.4743977295 0.322705066 1
-25.2227675915 104.4449117184 0.3691933538 0.4061484206 1
-21.6672155857 104.4449117184 0.3533726769 0.2938804764 1
-18.1116635799 104.4449117184 0.4234179543 0.2744770582 1
-14.5561115742 104.4449117184 0.270113036 0.3728484752 1
-11.0005595684 104.4449117184 0.6427703022 0.321119056 1
-7.4450075626 104.4449117184 0.2983663255 0.4369391561 1
-3.8894555569 104.4449117184 0.3632014596 0.4169331812 1
-0.3339035511 104.4449117184 0.373416285 0.2461119877 1
3.2216484547 104.4449117184 0.1780640568 0.1639146017 1
6.7772004604 104.4449117184 0.456789094 0.3716937706 1
10.3327524662 104.4449117184 0.4235927407 0.2767819478 1
13.888304472 104.4449117184 0 -0 0
17.4438564777 104.4449117184 0 -0 0
20.9994084835 104.4449117184 0 -0 0
24.5549604893 104.4449117184 0 -0 0
28.110512495 104.4449117184 0 -0 0
31.6660645008 104.4449117184 0 -0 0
35.2216165066 104.4449117184 0.3793859169 0.404779842 1
38.7771685123 104.4449117184 0.3962892762 0.4130424158 1
42.3327205181 104.4449117184 0.5332351522 0.4225059862 1
45.8882725239 104.4449117184 0.4408009694 0.3733774212 1
49.4438245296 104.4449117184 0.3890323732 0.2106431872 1
52.9993765354 104.4449117184 0 -0 0
-124.778223753 100.8893597126 0.5559702742 0.6350369205 1
-121.2226717472 100.8893597126 0.5966110702 0.5401800261 1
-117.6671197414 100.8893597126 0.6410534932 0.4614469776 1
-114.1115677357 100.8893597126 0.5708304313 0.6229807296 1
-110.5560157299 100.8893597126 0.6467568735 0.4454494111 1
-107.0004637241 100.8893597126 0.531041059 0.390597262 1
-103.4449117184 100.8893597126 0.465807241 0.3182102001 1
-99.8893597126 100.8893597126 0.421932225 0.3754996263 1
-96.3338077068 100.8893597126 0.3533049952 0.3921014723 1
-92.7782557011 100.8893597126 0.3182077389 0.3537847629 1
-89.2227036953 100.8893597126 0.2612128453 0.3527845067 1
-85.6671516895 100.8893597126 0.4083032695 0.307096048 1
-82.1115996838 100.8893597126 0.3258892799 0.4580930562 1
-78.556047678 100.8893597126 0.4368633974 0.3533833269 1
-75.0004956722 100.8893597126 0.3829846556 0.4088028383 1
-71.4449436665 100.8893597126 0.43868796 0.2917554073 1
-67.8893916607 100.8893597126 0 -0 0
-64.3338396549 100.8893597126 0 -0 0
-60.7782876492 100.8893597126 0.4020905207 0.3802067329 1
-57.2227356434 100.8893597126 0.464720218 0.2609711827 1
-53.6671836376 100.8893597126 0.2951798742 0.2580825529 1
-50.1116316319 100.8893597126 0.2374448455 0.254416759 1
-46.5560796261 100.8893597126 0.3445059802 0.3963712996 1
-43.0005276203 100.8893597126 0.3829070623 0.2549670723 1
-39.4449756145 100.8893597126 0.3239611476 0.3967474976 1
-35.8894236088 100.8893597126 0.5779317896 0.302270135 1
-32.333871603 100.8893597126 0.2520803219 0.4137944091 1
-28.7783195972 100.8893597126 0.4770325475 0.6006488334 1
-25.2227675915 100.8893597126 0.4083610842 0.3477297738 1
-21.6672155857 100.8893597126 0.4538440816 0.5517817544 1
-18.1116635799 100.8893597126 0.5046450878 0.2865730302 1
-14.5561115742 100.8893597126 0.3081625763 0.3359291398 1
-11.0005595684 100.8893597126 0.3120786021 0.461277382 1
-7.4450075626 100.8893597126 0.3571621995 0.6046256943 1
-3.8894555569 100.8893597126 0.4339606272 0.2350582905 1
-0.3339035511 100.8893597126 0.2313006733 0.4449412507 1
3.2216484547 100.8893597126 0.4658472011 0.2791301985 1
6.7772004604 100.8893597126 0.1917217518 0.2853997999 1
10.3327524662 100.8893597126 0.3198412491 0.1871102385 1
13.888304472 100.8893597126 0 -0 0
17.4438564777 100.8893597126 0 -0 0
20.9994084835 100.8893597126 0 -0 0
24.5549604893 100.8893597126 0 -0 0
28.110512495 100.8893597126 0 -0 0
31.6660645008 100.8893597126 0 -0 0
35.2216165066 100.8893597126 0.306289283 0.220266352 1
38.7771685123 100.8893597126 0.5997749908 0.1552053067 1
42.3327205181 100.8893597126 0.3673313369 0.2639266438 1
45.8882725239 100.8893597126 0.2794989012 0.464288935 1
49.4438245296 100.8893597126 0.4297819967 0.3482126739 1
52.9993765354 100.8893597126 0 -0 0
-124.778223753 97.3338077068 0.6786518152 0.708559132 1
-121.2226717472 97.3338077068 0.7249994371 0.5934437935 1
-117.6671197414 97.3338077068 0.9605035537 0.5301071196 1
-114.1115677357 97.3338077068 0.8392506433 0.5677383315 1
-110.5560157299 97.3338077068 0.6088824551 0.7646510297 1
-107.0004637241 97.3338077068 0.6269727601 0.4426558713 1
-103.4449117184 97.3338077068 0.5697187073 0.6433041928 1
-99.8893597126 97.3338077068 0.4923348167 0.5996320651 1
-96.3338077068 97.3338077068 0.5998690963 0.5439605767 1
-92.7782557011 97.3338077068 0.6059361002 0.5652827747 1
-89.2227036953 97.3338077068 0.4037305418 0.3471248902 1
-85.6671516895 97.3338077068 0.5519679963 0.3958326209 1
-82.1115996838 97.3338077068 0.495793941 0.2342619517 1
-78.556047678 97.3338077068 0.3883162232 0.2335004271 1
-75.0004956722 97.3338077068 0.3299329499 0.2808696724 1
-71.4449436665 97.3338077068 0.2836674186 0.2171261703 1
-67.8893916607 97.3338077068 0 -0 0
-64.3338396549 97.3338077068 0 -0 0
-60.7782876492 97.3338077068 0.2515582896 0.3432328047 1
-57.2227356434 97.3338077068 0.3443621819 0.2586481253 1
-53.6671836376 97.3338077068 0.3448713715 0.2812314839 1
-50.1116316319 97.3338077068 0.2957632563 0.3691635515 1
-46.5560796261 97.3338077068 0.3016797946 0.2005450427 1
-43.0005276203 97.3338077068 0.3943868965 0.3582238055 1
-39.4449756145 97.3338077068 0.2197330879 0.4111447347 1
-35.8894236088 97.3338077068 0.1855030067 0.3301011135 1
-32.333871603 97.3338077068 0.4976105832 0.4647745423 1
-28.7783195972 97.3338077068 0.4639446424 0.3062572209 1
-25.2227675915 97.3338077068 0.4723433402 0.564417658 1
-21.6672155857 97.3338077068 0.2892332429 0.3431237087 1
-18.1116635799 97.3338077068 0.237636323 0.3525210741 1
-14.5561115742 97.3338077068 0.3580050987 0.4436337087 1
-11.0005595684 97.3338077068 0.5900253005 0.3236276841 1
-7.4450075626 97.3338077068 0.4885515812 0.5128627344 1
-3.8894555569 97.3338077068 0.1648782762 0.3151679722 1
-0.3339035511 97.3338077068 0.1865605518 0.3041838136 1
3.2216484547 97.3338077068 0.3664506702 0.4785424409 1
6.7772004604 97.3338077068 0.243539571 0.421708126 1
10.3327524662 97.3338077068 0.3366125565 0.2828596914 1
13.888304472 97.3338077068 0.2117878682 0.376624909 1
17.4438564777 97.3338077068 0 -0 0
20.9994084835 97.3338077068 0 -0 0
24.5549604893 97.3338077068 0 -0 0
28.110512495 97.3338077068 0 -0 0
31.6660645008 97.3338077068 0 -0 0
35.2216165066 97.3338077068 0.3922386703 0.215312929 1
38.7771685123 97.3338077068 0.2909823376 0.3000105529 1
42.3327205181 97.3338077068 0.26015511 0.3430379711 1
45.8882725239 97.3338077068 0.3061578575 0.1374605249 1
49.4438245296 97.3338077068 0.4176540745 0.3394203263 1
52.9993765354 97.3338077068 0 -0 0
-124.778223753 93.7782557011 1.1417672737 1.013672992 1
-121.2226717472 93.7782557011 1.0715294449 0.9836625306 1
-117.6671197414 93.7782557011 1.0257096279 0.9172673181 1
-114.1115677357 93.7782557011 1.1270393923 0.8077263508 1
-110.5560157299 93.7782557011 0.8193053023 0.9594976145 1
-107.0004637241 93.7782557011 0.6757952252 0.9780392049 1
-103.4449117184 93.7782557011 0.8835799877 0.7627606872 1
-99.8893597126 93.7782557011 0.7480175019 0.7265454422 1
-96.3338077068 93.7782557011 0.5727135245 0.7110812741 1
-92.7782557011 93.7782557011 0.508718023 0.4630405053 1
-89.2227036953 93.7782557011 0.3517553431 0.4789315263 1
-85.6671516895 93.7782557011 0.490963419 0.4729553612 1
-82.1115996838 93.7782557011 0.538990664 0.2624758181 1
-78.556047678 93.7782557011 0.5654942099 0.3585063232 1
-75.0004956722 93.7782557011 0.3698643976 0.3204598481 1
-71.4449436665 93.7782557011 0.2693920979 0.423135638 1
-67.8893916607 93.7782557011 0 -0 0
-64.3338396549 93.7782557011 0.3750204404 0.5840541471 1
-60.7782876492 93.7782557011 0.3906088518 0.4318746905 1
-57.2227356434 93.7782557011 0.4731475546 0.291922676 1
-53.6671836376 93.7782557011 0.357352603 0.2193863789 1
-50.1116316319 93.7782557011 0.3387156318 0.3681556433 1
-46.5560796261 93.7782557011 0.5283773337 0.3180155678 1
-43.0005276203 93.7782557011 0.3868333577 0.3137403708 1
-39.4449756145 93.7782557011 0.2237147592 0.4335910967 1
-35.8894236088 93.7782557011 0.3375286638 0.4667455657 1
-32.333871603 93.7782557011 0.5959392209 0.5025773635 1
-28.7783195972 93.7782557011 0.4688168698 0.4173600342 1
-25.2227675915 93.7782557011 0.4209050303 0.4421548706 1
-21.6672155857 93.7782557011 0.3503919554 0.4267105259 1
-18.1116635799 93.7782557011 0.3558225059 0.36730281 1
-14.5561115742 93.7782557011 0.4645686111 0.3108732202 1
-11.0005595684 93.7782557011 0.5235839973 0.4402968363 1
-7.4450075626 93.7782557011 0.2211664171 0.4194170636 1
-3.8894555569 93.7782557011 0.4389716188 0.3244596424 1
-0.3339035511 93.7782557011 0.4816384784 0.3279856654 1
3.2216484547 93.7782557011 0.3141449839 0.3968209742 1
6.7772004604 93.7782557011 0.3229719218 0.4112603193 1
10.3327524662 93.7782557011 0.3799637502 0.2826887533 1
13.888304472 93.7782557011 0.3031940061 0.2398984781 1
17.4438564777 93.7782557011 0 -0 0
20.9994084835 93.7782557011 0 -0 0
24.5549604893 93.7782557011 0 -0 0
28.110512495 93.7782557011 0 -0 0
31.6660645008 93.7782557011 0 -0 0
35.2216165066 93.7782557011 0.3021342795 0.2154290282 1
38.7771685123 93.7782557011 0.5746598917 0.3310679205 1
42.3327205181 93.7782557011 0.2165264999 0.2863750643 1
45.8882725239 93.7782557011 0.3738246345 0.2419918207 1
49.4438245296 93.7782557011 0.3425368586 0.2336812321 1
52.9993765354 93.7782557011 0 -0 0
-124.778223753 90.2227036953 1.2220405101 1.9547522525 1
-121.2226717472 90.2227036953 1.158992641 1.4485475114 1
-117.6671197414 90.2227036953 1.1402572014 1.2894184823 1
-114.1115677357 90.2227036953 1.1500702104 1.4684923155 1
-110.5560157299 90.2227036953 1.2190959899 1.9607309683 1
-107.0004637241 90.2227036953 1.2870086134 1.344379996 1
-103.4449117184 90.2227036953 1.0875249529 1.3117957979 1
-99.8893597126 90.2227036953 0.8835247684 1.1720093517 1
-96.3338077068 90.2227036953 0.8713026065 1.257740435 1
-92.7782557011 90.2227036953 0.7722831015 1.1180571782 1
-89.2227036953 90.2227036953 0.8813066008 0.6055414212 1
-85.6671516895 90.2227036953 0.739160001 0.5603478104 1
-82.1115996838 90.2227036953 0.5555611863 0.541774583 1
-78.556047678 90.2227036953 0.3582750645 0.4990767576 1
-75.0004956722 90.2227036953 0.6132199864 0.4138568328 1
-71.4449436665 90.2227036953 0.5388546743 0.4105094447 1
-67.8893916607 90.2227036953 0 -0 0
-64.3338396549 90.2227036953 0.3558164873 0.2934412953 1
-60.7782876492 90.2227036953 0.3172172154 0.3382679486 1
-57.2227356434 90.2227036953 0.343679772 0.3136288135 1
-53.6671836376 90.2227036953 0.4215420655 0.4067153801 1
-50.1116316319 90.2227036953 0.3982610603 0.3913886785 1
-46.5560796261 90.2227036953 0.280231966 0.3964182405 1
-43.0005276203 90.2227036953 0.3250481258 0.3338851993 1
-39.4449756145 90.2227036953 0.4875334704 0.2452247206 1
-35.8894236088 90.2227036953 0.4659409038 0.6829924789 1
-32.333871603 90.2227036953 0.4402063107 0.2851885661 1
-28.7783195972 90.2227036953 0.4367787786 0.7127147172 1
-25.2227675915 90.2227036953 0.4433121929 0.4524258325 1
-21.6672155857 90.2227036953 0.3752431745 0.4093311802 1
-18.1116635799 90.2227036953 0.4364079951 0.3492779492 1
-14.5561115742 90.2227036953 0.5108843723 0.2848928477 1
-11.0005595684 90.2227036953 0.4695378079 0.3121985496 1
-7.4450075626 90.2227036953 0.3515798184 0.5424959238 1
-3.8894555569 90.2227036953 0.266998495 0.220910435 1
-0.3339035511 90.2227036953 0.3337249112 0.3462174417 1
3.2216484547 90.2227036953 0.4104566418 0.4346685883 1
6.7772004604 90.2227036953 0.4153438151 0.3427959058 1
10.3327524662 90.2227036953 0.3885764339 0.3559847852 1
13.888304472 90.2227036953 0.3253248486 0.2444070594 1
17.4438564777 90.2227036953 0 -0 0
20.9994084835 90.2227036953 0 -0 0
24.5549604893 90.2227036953 0 -0 0
28.110512495 90.2227036953 0 -0 0
31.6660645008 90.2227036953 0 -0 0
35.2216165066 90.2227036953 0.4603587017 0.2055247329 1
38.7771685123 90.2227036953 0.4606053537 0.3286232375 1
42.3327205181 90.2227036953 0.1957263342 0.1805785134 1
45.8882725239 90.2227036953 0.2807305279 0.4037126872 1