TITLE = "B00020"
VARIABLES = "x", "y", "Vx", "Vy", "isValid"
ZONE T="Frame 0", I=102, J=78, F=POINT
-125.6671117544 126.6671117544 0 -0 0
-123.8893357515 126.6671117544 0 -0 0
-122.1115597486 126.6671117544 0 -0 0
-120.3337837458 126.6671117544 0 -0 0
-118.5560077429 126.6671117544 0 -0 0
-116.77823174 126.6671117544 0 -0 0
-115.0004557371 126.6671117544 0 -0 0
-113.2226797342 126.6671117544 0 -0 0
-111.4449037313 126.6671117544 0 -0 0
-109.6671277285 126.6671117544 0 -0 0
-107.8893517256 126.6671117544 0 -0 0
-106.1115757227 126.6671117544 0 -0 0
-104.3337997198 126.6671117544 0 -0 0
-102.5560237169 126.6671117544 0 -0 0
-100.778247714 126.6671117544 0 -0 0
-99.0004717112 126.6671117544 0 -0 0
-97.2226957083 126.6671117544 0 -0 0
-95.4449197054 126.6671117544 0 -0 0
-93.6671437025 126.6671117544 0 -0 0
-91.8893676996 126.6671117544 0 -0 0
-90.1115916967 126.6671117544 0 -0 0
-88.3338156939 126.6671117544 0 -0 0
-86.556039691 126.6671117544 0 -0 0
-84.7782636881 126.6671117544 0 -0 0
-83.0004876852 126.6671117544 0 -0 0
-81.2227116823 126.6671117544 0 -0 0
-79.4449356794 126.6671117544 0 -0 0
-77.6671596766 126.6671117544 0 -0 0
-75.8893836737 126.6671117544 0 -0 0
-74.1116076708 126.6671117544 0 -0 0
-72.3338316679 126.6671117544 0 -0 0
-70.556055665 126.6671117544 0 -0 0
-68.7782796621 126.6671117544 0 -0 0
-67.0005036592 126.6671117544 0 -0 0
-65.2227276564 126.6671117544 0 -0 0
-63.4449516535 126.6671117544 0 -0 0
-61.6671756506 126.6671117544 0 -0 0
-59.8893996477 126.6671117544 0 -0 0
-58.1116236448 126.6671117544 0 -0 0
-56.3338476419 126.6671117544 0 -0 0
-54.5560716391 126.6671117544 0 -0 0
-52.7782956362 126.6671117544 0 -0 0
-51.0005196333 126.6671117544 0 -0 0
-49.2227436304 126.6671117544 0 -0 0
-47.4449676275 126.6671117544 0 -0 0
-45.6671916246 126.6671117544 0 -0 0
-43.8894156218 126.6671117544 0 -0 0
-42.1116396189 126.6671117544 0 -0 0
-40.333863616 126.6671117544 0 -0 0
-38.5560876131 126.6671117544 0 -0 0
-36.7783116102 126.6671117544 0 -0 0
-35.0005356073 126.6671117544 0 -0 0
-33.2227596045 126.6671117544 0 -0 0
-31.4449836016 126.6671117544 0 -0 0
-29.6672075987 126.6671117544 0 -0 0
-27.8894315958 126.6671117544 0 -0 0
-26.1116555929 126.6671117544 0 -0 0
-24.33387959 126.6671117544 0 -0 0
-22.5561035872 126.6671117544 0 -0 0
-20.7783275843 126.6671117544 0 -0 0
-19.0005515814 126.6671117544 0 -0 0
-17.2227755785 126.6671117544 0 -0 0
-15.4449995756 126.6671117544 0 -0 0
-13.6672235727 126.6671117544 0 -0 0
-11.8894475698 126.6671117544 0 -0 0
-10.111671567 126.6671117544 0 -0 0
-8.3338955641 126.6671117544 0 -0 0
-6.5561195612 126.6671117544 0 -0 0
-4.7783435583 126.6671117544 0 -0 0
-3.0005675554 126.6671117544 0 -0 0
-1.2227915525 126.6671117544 0 -0 0
0.5549844503 126.6671117544 0 -0 0
2.3327604532 126.6671117544 0 -0 0
4.1105364561 126.6671117544 0 -0 0
5.888312459 126.6671117544 0 -0 0
7.6660884619 126.6671117544 0 -0 0
9.4438644648 126.6671117544 0 -0 0
11.2216404676 126.6671117544 0 -0 0
12.9994164705 126.6671117544 0 -0 0
14.7771924734 126.6671117544 0 -0 0
16.5549684763 126.6671117544 0 -0 0
18.3327444792 126.6671117544 0 -0 0
20.1105204821 126.6671117544 0 -0 0
21.8882964849 126.6671117544 0 -0 0
23.6660724878 126.6671117544 0 -0 0
25.4438484907 126.6671117544 0 -0 0
27.2216244936 126.6671117544 0 -0 0
28.9994004965 126.6671117544 0 -0 0
30.7771764994 126.6671117544 0 -0 0
32.5549525023 126.6671117544 0 -0 0
34.3327285051 126.6671117544 0 -0 0
36.110504508 126.6671117544 0 -0 0
37.8882805109 126.6671117544 0 -0 0
39.6660565138 126.6671117544 0 -0 0
41.4438325167 126.6671117544 0 -0 0
43.2216085196 126.6671117544 0 -0 0
44.9993845224 126.6671117544 0 -0 0
46.7771605253 126.6671117544 0 -0 0
48.5549365282 126.6671117544 0 -0 0
50.3327125311 126.6671117544 0 -0 0
52.110488534 126.6671117544 0 -0 0
53.8882645369 126.6671117544 0 -0 0
-125.6671117544 124.8893357515 0 -0 0
-123.8893357515 124.8893357515 -10.2600534183 0.2505382994 1
-122.1115597486 124.8893357515 -9.8908071274 0.3074078758 1
-120.3337837458 124.8893357515 -9.7755572759 0.2287785088 1
-118.5560077429 124.8893357515 -9.8316736508 -0.0652407093 1
-116.77823174 124.8893357515 -9.7947037723 -0.028635976 1
-115.0004557371 124.8893357515 -9.9038879176 -0.1456886426 1
-113.2226797342 124.8893357515 -10.1446374615 -0.2566784667 1
-111.4449037313 124.8893357515 -10.5171557398 -0.0355422323 1
-109.6671277285 124.8893357515 -10.1244198724 0.1786462195 1
-107.8893517256 124.8893357515 -10.078513244 0.2049696093 1
-106.1115757227 124.8893357515 -10.1348587296 0.1398133846 1
-104.3337997198 124.8893357515 -9.9339085815 0.0517947739 1
-102.5560237169 124.8893357515 -9.8794217566 0.1047508528 1
-100.778247714 124.8893357515 -9.8930180459 0.0267458126 1
-99.0004717112 124.8893357515 -9.7488343744 -0.0023684321 1
-97.2226957083 124.8893357515 -9.8742882446 0.0751339965 1
-95.4449197054 124.8893357515 -10.1324659545 0.0027421689 1
-93.6671437025 124.8893357515 -9.8956742983 0.1138895067 1
-91.8893676996 124.8893357515 -10.149192469 0.0534114365 1
-90.1115916967 124.8893357515 -10.292624371 -0.2723539357 1
-88.3338156939 124.8893357515 -10.1717154846 0.0512463402 1
-86.556039691 124.8893357515 -10.3662791714 0.0649815278 1
-84.7782636881 124.8893357515 -10.3039252572 -0.1847033342 1
-83.0004876852 124.8893357515 -10.1625739669 -0.0911803385 1
-81.2227116823 124.8893357515 -9.8193789968 -0.1181008481 1
-79.4449356794 124.8893357515 -9.780517523 -0.0966747 1
-77.6671596766 124.8893357515 -10.2037422993 0.0474459661 1
-75.8893836737 124.8893357515 -10.7205631004 0.0400342343 1
-74.1116076708 124.8893357515 -10.4807700937 -0.0593568596 1
-72.3338316679 124.8893357515 0 -0 0
-70.556055665 124.8893357515 0 -0 0
-68.7782796621 124.8893357515 0 -0 0
-67.0005036592 124.8893357515 0 -0 0
-65.2227276564 124.8893357515 0 -0 0
-63.4449516535 124.8893357515 0 -0 0
-61.6671756506 124.8893357515 0 -0 0
-59.8893996477 124.8893357515 0 -0 0
-58.1116236448 124.8893357515 -10.899381153 0.156095997 1
-56.3338476419 124.8893357515 -10.8338755344 0.0298359434 1
-54.5560716391 124.8893357515 -10.5048166957 -0.1022363627 1
-52.7782956362 124.8893357515 -10.3955881602 -0.2494929817 1
-51.0005196333 124.8893357515 -10.3791795369 -0.0935015165 1
-49.2227436304 124.8893357515 -10.2712168381 0.2185845138 1
-47.4449676275 124.8893357515 -10.3490972994 0.1501176392 1
-45.6671916246 124.8893357515 -10.0700175321 0.1401398673 1
-43.8894156218 124.8893357515 -10.3465097802 0.2353267796 1
-42.1116396189 124.8893357515 -10.4180481704 0.1577026359 1
-40.333863616 124.8893357515 -10.1210863115 -0.2099828382 1
-38.5560876131 124.8893357515 -10.0549778453 -0.2460820959 1
-36.7783116102 124.8893357515 -10.1593678488 -0.1303267688 1
-35.0005356073 124.8893357515 -10.3117336369 -0.2778411374 1
-33.2227596045 124.8893357515 -10.0806740445 0.0219373514 1
-31.4449836016 124.8893357515 -9.7446158732 0.4993639962 1
-29.6672075987 124.8893357515 -10.2648046019 0.5983226436 1
-27.8894315958 124.8893357515 -10.4605568005 0.7366811751 1
-26.1116555929 124.8893357515 -10.2036306078 0.8024087447 1
-24.33387959 124.8893357515 -10.413885515 0.4930877944 1
-22.5561035872 124.8893357515 -10.0026074307 0.4411498263 1
-20.7783275843 124.8893357515 -10.1574690937 0.20001509 1
-19.0005515814 124.8893357515 -10.244730207 0.0051177607 1
-17.2227755785 124.8893357515 -10.0691440475 -0.0786880766 1
-15.4449995756 124.8893357515 -10.1595540013 -0.1300146055 1
-13.6672235727 124.8893357515 -10.5814313202 -0.1504498497 1
-11.8894475698 124.8893357515 -10.4319222564 0.004370287 1
-10.111671567 124.8893357515 -10.3975499207 0.2722894983 1
-8.3338955641 124.8893357515 -10.6493153944 0.3491275058 1
-6.5561195612 124.8893357515 -10.6151936486 0.2203887607 1
-4.7783435583 124.8893357515 -10.5339266445 0.2800463281 1
-3.0005675554 124.8893357515 -9.7315393789 0.4707022452 1
-1.2227915525 124.8893357515 -10.1651342792 0.4198038669 1
0.5549844503 124.8893357515 -10.4701579716 0.2915462543 1
2.3327604532 124.8893357515 -10.4005283601 0.0267687237 1
4.1105364561 124.8893357515 -10.4738423583 -0.0838301803 1
5.888312459 124.8893357515 -10.6114247773 0.4477625344 1
7.6660884619 124.8893357515 -10.7173498225 0.7946533468 1
9.4438644648 124.8893357515 -10.832108518 0.6272493039 1
11.2216404676 124.8893357515 -11.3470720903 -0.1018640578 1
12.9994164705 124.8893357515 0 -0 0
14.7771924734 124.8893357515 0 -0 0
16.5549684763 124.8893357515 0 -0 0
18.3327444792 124.8893357515 0 -0 0
20.1105204821 124.8893357515 0 -0 0
21.8882964849 124.8893357515 0 -0 0
23.6660724878 124.8893357515 0 -0 0
25.4438484907 124.8893357515 0 -0 0
27.2216244936 124.8893357515 0 -0 0
28.9994004965 124.8893357515 0 -0 0
30.7771764994 124.8893357515 0 -0 0
32.5549525023 124.8893357515 0 -0 0
34.3327285051 124.8893357515 0 -0 0
36.110504508 124.8893357515 0 -0 0
37.8882805109 124.8893357515 -10.2226783003 0.6311542097 1
39.6660565138 124.8893357515 -10.7533860748 0.629518932 1
41.4438325167 124.8893357515 -10.8076767236 0.7527017422 1
43.2216085196 124.8893357515 -10.6122395523 0.5981679939 1
44.9993845224 124.8893357515 -9.6029982418 0.34018646 1
46.7771605253 124.8893357515 -9.4378767144 0.1901375541 1
48.5549365282 124.8893357515 -9.7112616483 0.0473027719 1
50.3327125311 124.8893357515 -9.9336408084 0.2667221078 1
52.110488534 124.8893357515 -10.1464059099 0.4013590221 1
53.8882645369 124.8893357515 0 -0 0
-125.6671117544 123.1115597486 0 -0 0
-123.8893357515 123.1115597486 -10.1483333038 0.2012293768 1
-122.1115597486 123.1115597486 -9.9819917618 0.1432915717 1
-120.3337837458 123.1115597486 -9.630714911 0.0652063427 1
-118.5560077429 123.1115597486 -9.4101414298 -0.1417407785 1
-116.77823174 123.1115597486 -9.6520594384 0.0918003694 1
-115.0004557371 123.1115597486 -9.9223957679 -0.0300493028 1
-113.2226797342 123.1115597486 -10.1483504871 -0.2180446716 1
-111.4449037313 123.1115597486 -10.5752009406 0.1450385409 1
-109.6671277285 123.1115597486 -10.4011426632 0.4597063626 1
-107.8893517256 123.1115597486 -10.2274695782 0.1520822636 1
-106.1115757227 123.1115597486 -10.1304598038 0.02602125 1
-104.3337997198 123.1115597486 -10.0815389374 0.0780580221 1
-102.5560237169 123.1115597486 -10.1492096523 0.2101732865 1
-100.778247714 123.1115597486 -10.3027424731 0.0189259774 1
-99.0004717112 123.1115597486 -10.1033130474 -0.0980665476 1
-97.2226957083 123.1115597486 -9.8179527826 -0.0062332435 1
-95.4449197054 123.1115597486 -10.0615905535 0.214728294 1
-93.6671437025 123.1115597486 -10.1618107418 0.1722712138 1
-91.8893676996 123.1115597486 -9.6990557747 -0.3733946268 1
-90.1115916967 123.1115597486 0 -0 0
-88.3338156939 123.1115597486 -10.070046171 -0.0078026519 1
-86.556039691 123.1115597486 -10.2912067484 0.0889307577 1
-84.7782636881 123.1115597486 -10.3896742397 -0.0678625951 1
-83.0004876852 123.1115597486 -10.686948262 0.1561103164 1
-81.2227116823 123.1115597486 -10.06621859 -0.1534225613 1
-79.4449356794 123.1115597486 -9.8902787408 -0.3064484746 1
-77.6671596766 123.1115597486 -10.0636453902 -0.2632797193 1
-75.8893836737 123.1115597486 -10.2223102912 -0.0056189404 1
-74.1116076708 123.1115597486 -10.3520556916 -0.1538435522 1
-72.3338316679 123.1115597486 0 -0 0
-70.556055665 123.1115597486 0 -0 0
-68.7782796621 123.1115597486 0 -0 0
-67.0005036592 123.1115597486 0 -0 0
-65.2227276564 123.1115597486 0 -0 0
-63.4449516535 123.1115597486 0 -0 0
-61.6671756506 123.1115597486 0 -0 0
-59.8893996477 123.1115597486 -10.2082872832 -0.1824952796 1
-58.1116236448 123.1115597486 -10.5954729434 -0.1073727386 1
-56.3338476419 123.1115597486 -10.5774848881 0.0959472734 1
-54.5560716391 123.1115597486 -10.7375788671 0.0642140069 1
-52.7782956362 123.1115597486 -10.6241590374 -0.1964853529 1
-51.0005196333 123.1115597486 -10.2254963621 -0.1858546156 1
-49.2227436304 123.1115597486 -10.4722070806 0.1360130105 1
-47.4449676275 123.1115597486 -10.4710744145 0.2139965716 1
-45.6671916246 123.1115597486 -10.3373124168 0.1908320459 1
-43.8894156218 123.1115597486 -10.3606573671 0.1380291848 1
-42.1116396189 123.1115597486 -10.4241439475 -0.0771644903 1
-40.333863616 123.1115597486 -10.2921819009 -0.3213950852 1
-38.5560876131 123.1115597486 -10.0828147978 -0.190336594 1
-36.7783116102 123.1115597486 -10.4783501117 -0.1037270143 1
-35.0005356073 123.1115597486 -10.9238816805 -0.2108305479 1
-33.2227596045 123.1115597486 -10.3419247019 0.0596103134 1
-31.4449836016 123.1115597486 -9.5367480134 0.2928894159 1
-29.6672075987 123.1115597486 -10.2393919273 0.1297153296 1
-27.8894315958 123.1115597486 -10.2118399313 0.1127267698 1
-26.1116555929 123.1115597486 -9.8782575878 0.245512183 1
-24.33387959 123.1115597486 -10.4768838031 0.0343336732 1
-22.5561035872 123.1115597486 -10.7174414668 -0.0251449015 1
-20.7783275843 123.1115597486 -10.3871583177 0.0098589206 1
-19.0005515814 123.1115597486 -9.9774525057 0.006911984 1
-17.2227755785 123.1115597486 -9.7721406623 -0.2029333877 1
-15.4449995756 123.1115597486 -10.3188518206 -0.3364576831 1
-13.6672235727 123.1115597486 -10.3414679124 -0.0690224681 1
-11.8894475698 123.1115597486 -10.4699875705 -0.0043602634 1
-10.111671567 123.1115597486 -10.6350188855 0.1422290707 1
-8.3338955641 123.1115597486 -10.6929910572 0.2366155274 1
-6.5561195612 123.1115597486 -10.630786065 0.2242235013 1
-4.7783435583 123.1115597486 -10.3876480418 0.4419846485 1
-3.0005675554 123.1115597486 -9.9400759557 0.6969634 1
-1.2227915525 123.1115597486 -10.0601600434 0.5380450453 1
0.5549844503 123.1115597486 -10.3810138546 0.2092425242 1
2.3327604532 123.1115597486 -10.3912407843 0.1553413636 1
4.1105364561 123.1115597486 -10.0399968682 0.266324028 1
5.888312459 123.1115597486 -10.2333376765 0.5298471774 1
7.6660884619 123.1115597486 -10.6929523948 0.6029750232 1
9.4438644648 123.1115597486 -10.2915633019 0.4443602402 1
11.2216404676 123.1115597486 -10.6824161656 -0.4118093348 1
12.9994164705 123.1115597486 0 -0 0
14.7771924734 123.1115597486 0 -0 0
16.5549684763 123.1115597486 0 -0 0
18.3327444792 123.1115597486 0 -0 0
20.1105204821 123.1115597486 0 -0 0
21.8882964849 123.1115597486 0 -0 0
23.6660724878 123.1115597486 0 -0 0
25.4438484907 123.1115597486 0 -0 0
27.2216244936 123.1115597486 0 -0 0
28.9994004965 123.1115597486 0 -0 0
30.7771764994 123.1115597486 0 -0 0
32.5549525023 123.1115597486 0 -0 0
34.3327285051 123.1115597486 0 -0 0
36.110504508 123.1115597486 0 -0 0
37.8882805109 123.1115597486 -9.7771896898 0.9435796103 1
39.6660565138 123.1115597486 -10.5947354933 0.7880793011 1
41.4438325167 123.1115597486 -10.5525461863 0.6751563553 1
43.2216085196 123.1115597486 -9.9823211085 0.46742453 1
44.9993845224 123.1115597486 -9.8063010705 0.2040760775 1
46.7771605253 123.1115597486 -9.7378299001 0.0855370551 1
48.5549365282 123.1115597486 -9.8493581344 0.2506442631 1
50.3327125311 123.1115597486 -9.985714811 0.6422145297 1
52.110488534 123.1115597486 -10.3148495427 0.7063970339 1
53.8882645369 123.1115597486 0 -0 0
-125.6671117544 121.3337837458 0 -0 0
-123.8893357515 121.3337837458 -9.8728018888 0.0643486094 1
-122.1115597486 121.3337837458 -9.8774700197 -0.16589764 1
-120.3337837458 121.3337837458 -10.0066283238 0.0058065248 1
-118.5560077429 121.3337837458 -10.0131651391 0.1802414029 1
-116.77823174 121.3337837458 -10.0866065802 0.1689777472 1
-115.0004557371 121.3337837458 -10.3862418748 0.0636312065 1
-113.2226797342 121.3337837458 -10.3176375337 -0.0062790657 1
-111.4449037313 121.3337837458 -10.2505166846 0.2884747387 1
-109.6671277285 121.3337837458 -10.3989389045 0.2954683434 1
-107.8893517256 121.3337837458 -10.4406886053 -0.0814531566 1
-106.1115757227 121.3337837458 -10.5005251655 -0.1517858516 1
-104.3337997198 121.3337837458 -10.3282840225 0.0809405213 1
-102.5560237169 121.3337837458 -10.2441946607 0.2467307656 1
-100.778247714 121.3337837458 -10.6041003939 0.0761249004 1
-99.0004717112 121.3337837458 -10.1809944688 -0.0871465579 1
-97.2226957083 121.3337837458 -10.0570455696 -0.1172116121 1
-95.4449197054 121.3337837458 -10.1815028082 0.2092067256 1
-93.6671437025 121.3337837458 -10.3864652577 0.113610278 1
-91.8893676996 121.3337837458 -9.625284987 -0.3790336144 1
-90.1115916967 121.3337837458 -9.8963874054 -0.1546110731 1
-88.3338156939 121.3337837458 -10.23645931 0.0209235364 1
-86.556039691 121.3337837458 -10.2389652085 -0.0577387652 1
-84.7782636881 121.3337837458 -10.3671970462 0.04744883 1
-83.0004876852 121.3337837458 -10.7443719999 0.0898987505 1
-81.2227116823 121.3337837458 -10.5871862951 -0.2119589181 1
-79.4449356794 121.3337837458 -10.2461249185 -0.2706399011 1
-77.6671596766 121.3337837458 0 -0 0
-75.8893836737 121.3337837458 -10.0886614169 0.2925299984 1
-74.1116076708 121.3337837458 -10.0664119022 -0.0545383748 1
-72.3338316679 121.3337837458 0 -0 0
-70.556055665 121.3337837458 0 -0 0
-68.7782796621 121.3337837458 0 -0 0
-67.0005036592 121.3337837458 0 -0 0
-65.2227276564 121.3337837458 0 -0 0
-63.4449516535 121.3337837458 0 -0 0
-61.6671756506 121.3337837458 0 -0 0
-59.8893996477 121.3337837458 -10.1276589252 -0.4340874883 1
-58.1116236448 121.3337837458 -10.1314936659 -0.4496956561 1
-56.3338476419 121.3337837458 -10.2004187619 -0.1221561078 1
-54.5560716391 121.3337837458 -10.5218253027 0.006196013 1
-52.7782956362 121.3337837458 -10.4427047796 -0.2300257303 1
-51.0005196333 121.3337837458 -10.2087741435 -0.2443136475 1
-49.2227436304 121.3337837458 -10.6090090911 0.1099187315 1
-47.4449676275 121.3337837458 -10.6643121229 0.2603342146 1
-45.6671916246 121.3337837458 -10.5823062368 0.2411333044 1
-43.8894156218 121.3337837458 -10.3706136598 -0.1140742272 1
-42.1116396189 121.3337837458 -10.2192659825 -0.2110840016 1
-40.333863616 121.3337837458 -10.4339398627 0.1072180889 1
-38.5560876131 121.3337837458 -10.5745852055 -0.0260914151 1
-36.7783116102 121.3337837458 -10.6916350082 -0.5140929516 1
-35.0005356073 121.3337837458 -10.7580427502 -0.0519809264 1
-33.2227596045 121.3337837458 -10.2762959364 0.3104435928 1
-31.4449836016 121.3337837458 -9.6573132336 0.312907965 1
-29.6672075987 121.3337837458 -10.240879715 -0.1932520279 1
-27.8894315958 121.3337837458 -9.5996875919 -0.4117577849 1
-26.1116555929 121.3337837458 -9.8623859427 -0.3200862902 1
-24.33387959 121.3337837458 -10.6239599975 -0.109784129 1
-22.5561035872 121.3337837458 -10.6827784469 -0.031426831 1
-20.7783275843 121.3337837458 -10.36986905 -0.0930862533 1
-19.0005515814 121.3337837458 -10.2769259909 0.3426021462 1
-17.2227755785 121.3337837458 -10.1193178631 0.3779252913 1
-15.4449995756 121.3337837458 -9.9659726267 -0.3719813001 1
-13.6672235727 121.3337837458 -10.194394582 -0.0355794628 1
-11.8894475698 121.3337837458 -10.6357577676 0.3047201207 1
-10.111671567 121.3337837458 -10.8344812459 0.2545377134 1
-8.3338955641 121.3337837458 -10.4567578584 0.460313506 1
-6.5561195612 121.3337837458 -10.1986044914 0.3629299947 1
-4.7783435583 121.3337837458 -10.2229646887 0.1970237631 1
-3.0005675554 121.3337837458 -10.1411062925 0.6951677447 1
-1.2227915525 121.3337837458 -10.3486748765 0.7334392585 1
0.5549844503 121.3337837458 -10.9477707688 0.2872146297 1
2.3327604532 121.3337837458 -10.8891198566 0.4099735851 1
4.1105364561 121.3337837458 -10.131591038 0.6826955299 1
5.888312459 121.3337837458 -10.2585770861 0.6209143925 1
7.6660884619 121.3337837458 -10.3813102665 0.4129434328 1
9.4438644648 121.3337837458 -10.3556441382 0.2859960471 1
11.2216404676 121.3337837458 -9.7693025532 -0.3076470101 1
12.9994164705 121.3337837458 0 -0 0
14.7771924734 121.3337837458 0 -0 0
16.5549684763 121.3337837458 0 -0 0
18.3327444792 121.3337837458 0 -0 0
20.1105204821 121.3337837458 0 -0 0
21.8882964849 121.3337837458 0 -0 0
23.6660724878 121.3337837458 0 -0 0
25.4438484907 121.3337837458 0 -0 0
27.2216244936 121.3337837458 0 -0 0
28.9994004965 121.3337837458 0 -0 0
30.7771764994 121.3337837458 0 -0 0
32.5549525023 121.3337837458 0 -0 0
34.3327285051 121.3337837458 0 -0 0
36.110504508 121.3337837458 0 -0 0
37.8882805109 121.3337837458 -10.2855806483 0.9996673463 1
39.6660565138 121.3337837458 -10.4236470636 0.7800947926 1
41.4438325167 121.3337837458 -10.0354132219 0.5056530854 1
43.2216085196 121.3337837458 -9.8309748631 0.2804830704 1
44.9993845224 121.3337837458 -10.2071388657 0.3450221281 1
46.7771605253 121.3337837458 -10.3936135122 0.4039852037 1
48.5549365282 121.3337837458 -10.2895800623 0.7247645538 1
50.3327125311 121.3337837458 -10.205280205 0.9611223317 1
52.110488534 121.3337837458 -10.6683330161 0.4138727632 1
53.8882645369 121.3337837458 0 -0 0
-125.6671117544 119.5560077429 0 -0 0
-123.8893357515 119.5560077429 -9.8018062046 0.0199111535 1
-122.1115597486 119.5560077429 -9.6574721792 -0.0499790715 1
-120.3337837458 119.5560077429 -10.0804248866 0.0484125269 1
-118.5560077429 119.5560077429 -10.0402402983 0.1440204301 1
-116.77823174 119.5560077429 -10.4745468738 0.125754578 1
-115.0004557371 119.5560077429 -10.6973613442 -0.0120999099 1
-113.2226797342 119.5560077429 -10.2958390807 0.044879926 1
-111.4449037313 119.5560077429 -10.1166186525 0.0995514715 1
-109.6671277285 119.5560077429 -10.265394562 -0.0136306559 1
-107.8893517256 119.5560077429 -10.3460744698 -0.1240892295 1
-106.1115757227 119.5560077429 -10.4029154074 -0.1344836964 1
-104.3337997198 119.5560077429 -10.2541423618 0.1241350516 1
-102.5560237169 119.5560077429 -10.2807263649 0.0544896888 1
-100.778247714 119.5560077429 -10.3355010101 -0.1400811577 1
-99.0004717112 119.5560077429 -9.8041073354 0.1152799223 1
-97.2226957083 119.5560077429 -9.9420878342 0.0398509458 1
-95.4449197054 119.5560077429 -9.992182893 -0.079812151 1
-93.6671437025 119.5560077429 -10.2853143071 0.1669357979 1
-91.8893676996 119.5560077429 -10.5180607272 -0.0181598884 1
-90.1115916967 119.5560077429 -10.8098475477 0.0432904704 1
-88.3338156939 119.5560077429 -10.3520857623 0.2190813976 1
-86.556039691 119.5560077429 -10.2837377389 0.1342030358 1
-84.7782636881 119.5560077429 -10.4330620822 0.1127224739 1
-83.0004876852 119.5560077429 -10.6286467436 0.1584816124 1
-81.2227116823 119.5560077429 -10.6330256223 0.0863103038 1
-79.4449356794 119.5560077429 -10.1559354838 0.031376713 1
-77.6671596766 119.5560077429 -9.8954179807 0.1595484091 1
-75.8893836737 119.5560077429 -10.3395018561 -0.0312134716 1
-74.1116076708 119.5560077429 -10.1906829883 -0.2192475029 1
-72.3338316679 119.5560077429 0 -0 0
-70.556055665 119.5560077429 0 -0 0
-68.7782796621 119.5560077429 0 -0 0
-67.0005036592 119.5560077429 0 -0 0
-65.2227276564 119.5560077429 0 -0 0
-63.4449516535 119.5560077429 0 -0 0
-61.6671756506 119.5560077429 -10.0248111233 -0.0483767284 1
-59.8893996477 119.5560077429 -10.3141307078 -0.2332518956 1
-58.1116236448 119.5560077429 -10.3096759362 -0.2038856292 1
-56.3338476419 119.5560077429 -10.1622045259 -0.0495595125 1
-54.5560716391 119.5560077429 -10.2146522654 -0.0373121126 1
-52.7782956362 119.5560077429 -9.9927971961 -0.096870876 1
-51.0005196333 119.5560077429 -10.064687844 -0.1550306321 1
-49.2227436304 119.5560077429 -10.6524943056 0.2028131046 1
-47.4449676275 119.5560077429 -10.9874355621 0.4381284287 1
-45.6671916246 119.5560077429 -10.5375523216 0.3310363507 1
-43.8894156218 119.5560077429 -10.4896452702 -0.1663873641 1
-42.1116396189 119.5560077429 -10.304496602 -0.110326835 1
-40.333863616 119.5560077429 -10.2587818538 0.0640049433 1
-38.5560876131 119.5560077429 -10.6393147115 0.0570786399 1
-36.7783116102 119.5560077429 -10.5755460386 0.3126459196 1
-35.0005356073 119.5560077429 -10.6573471571 0.2528666371 1
-33.2227596045 119.5560077429 -10.5485095418 0.2392116382 1
-31.4449836016 119.5560077429 -10.4981939639 0.2166628476 1
-29.6672075987 119.5560077429 -10.2352120886 -0.1924200696 1
-27.8894315958 119.5560077429 -10.065329354 -0.1552754942 1
-26.1116555929 119.5560077429 -10.3259728681 -0.3908156332 1
-24.33387959 119.5560077429 -10.5570367564 -0.0534200281 1
-22.5561035872 119.5560077429 -10.6993331283 0.3220380272 1
-20.7783275843 119.5560077429 -10.7017588381 0.082479859 1
-19.0005515814 119.5560077429 -11.0144305326 0.5651159088 1
-17.2227755785 119.5560077429 0 -0 0
-15.4449995756 119.5560077429 -10.5131334148 0.4443631041 1
-13.6672235727 119.5560077429 -10.1273353064 -0.0544653458 1
-11.8894475698 119.5560077429 -10.4408590064 0.5881128972 1
-10.111671567 119.5560077429 -10.6382966008 0.181028971 1
-8.3338955641 119.5560077429 -10.4963138241 0.4108742766 1
-6.5561195612 119.5560077429 -10.4091916092 0.3459514585 1
-4.7783435583 119.5560077429 -10.1895216834 -0.0376113885 1
-3.0005675554 119.5560077429 -10.1103825451 0.2061094351 1
-1.2227915525 119.5560077429 -10.5779860678 0.2747810774 1
0.5549844503 119.5560077429 -10.640931374 0.3945816406 1
2.3327604532 119.5560077429 -10.4819700611 0.5544164382 1
4.1105364561 119.5560077429 -10.7617729591 0.5369309944 1
5.888312459 119.5560077429 -10.4154219888 0.4954619542 1
7.6660884619 119.5560077429 -10.1772757154 0.2249151293 1
9.4438644648 119.5560077429 -10.6270658797 -0.071568461 1
11.2216404676 119.5560077429 -10.0921754026 -0.0226289794 1
12.9994164705 119.5560077429 -10.4318563871 -0.227564222 1
14.7771924734 119.5560077429 0 -0 0
16.5549684763 119.5560077429 0 -0 0
18.3327444792 119.5560077429 0 -0 0
20.1105204821 119.5560077429 0 -0 0
21.8882964849 119.5560077429 0 -0 0
23.6660724878 119.5560077429 0 -0 0
25.4438484907 119.5560077429 0 -0 0
27.2216244936 119.5560077429 0 -0 0
28.9994004965 119.5560077429 0 -0 0
30.7771764994 119.5560077429 0 -0 0
32.5549525023 119.5560077429 0 -0 0
34.3327285051 119.5560077429 0 -0 0
36.110504508 119.5560077429 -10.1358467696 0.0391564539 1
37.8882805109 119.5560077429 -10.6884245942 0.224923721 1
39.6660565138 119.5560077429 -10.5604920324 0.4932152372 1
41.4438325167 119.5560077429 -10.0522156292 0.6936097918 1
43.2216085196 119.5560077429 -9.926761759 0.5057089312 1
44.9993845224 119.5560077429 -10.5760343308 0.3687350876 1
46.7771605253 119.5560077429 -10.643475935 0.5160919426 1
48.5549365282 119.5560077429 -10.526459067 1.1616930151 1
50.3327125311 119.5560077429 -10.3172308622 1.2616597497 1
52.110488534 119.5560077429 -10.4426045437 0.5020374319 1
53.8882645369 119.5560077429 0 -0 0
-125.6671117544 117.77823174 0 -0 0
-123.8893357515 117.77823174 -10.0110272497 -0.2179959856 1
-122.1115597486 117.77823174 -9.6578058217 -0.2280238754 1
-120.3337837458 117.77823174 -9.5564357839 -0.0601888179 1
-118.5560077429 117.77823174 -9.7929052532 -0.0311404426 1
-116.77823174 117.77823174 -10.3032679958 -0.1650513622 1
-115.0004557371 117.77823174 -10.35540214 -0.0437486919 1
-113.2226797342 117.77823174 -10.355526719 0.0419559005 1
-111.4449037313 117.77823174 -9.7767916099 -0.0873957158 1
-109.6671277285 117.77823174 -9.760494678 0.1557079407 1
-107.8893517256 117.77823174 -10.0194757074 0.1378630796 1
-106.1115757227 117.77823174 -9.9643974905 0.2820352955 1
-104.3337997198 117.77823174 -10.205084029 0.3087696526 1
-102.5560237169 117.77823174 -10.2055880726 0.0269162137 1
-100.778247714 117.77823174 -9.9619302544 -0.1842035864 1
-99.0004717112 117.77823174 -10.2588921134 0.1540769588 1
-97.2226957083 117.77823174 -10.0517846147 0.174883076 1
-95.4449197054 117.77823174 -10.020621261 0.1296967144 1
-93.6671437025 117.77823174 -10.2726129816 0.1990413694 1
-91.8893676996 117.77823174 -10.266084758 0.0635624733 1
-90.1115916967 117.77823174 -10.5059837284 0.1376354008 1
-88.3338156939 117.77823174 -9.8601836159 0.2191773377 1
-86.556039691 117.77823174 -9.8605043709 -0.0296999089 1
-84.7782636881 117.77823174 -10.1785043216 -0.1638786017 1
-83.0004876852 117.77823174 -10.4312120132 -0.3641643287 1
-81.2227116823 117.77823174 -10.256827253 -0.1650556581 1
-79.4449356794 117.77823174 -10.2755269835 -0.0549164075 1
-77.6671596766 117.77823174 -10.0054555634 -0.3404198666 1
-75.8893836737 117.77823174 -10.1737001562 -0.4674531688 1
-74.1116076708 117.77823174 -10.2396296296 -0.3961782559 1
-72.3338316679 117.77823174 0 -0 0
-70.556055665 117.77823174 0 -0 0
-68.7782796621 117.77823174 0 -0 0
-67.0005036592 117.77823174 0 -0 0
-65.2227276564 117.77823174 0 -0 0
-63.4449516535 117.77823174 0 -0 0
-61.6671756506 117.77823174 -9.425172525 -0.1893199152 1
-59.8893996477 117.77823174 -10.1872549192 -0.0338310616 1
-58.1116236448 117.77823174 -10.1767244177 0.3145332192 1
-56.3338476419 117.77823174 -9.8976489463 -0.0356295807 1
-54.5560716391 117.77823174 -10.025856441 -0.3900438164 1
-52.7782956362 117.77823174 -9.8820150036 -0.2889558712 1
-51.0005196333 117.77823174 -9.9161997549 -0.1801927169 1
-49.2227436304 117.77823174 -10.4204123066 0.1337462463 1
-47.4449676275 117.77823174 -10.9559113591 0.2356661498 1
-45.6671916246 117.77823174 -10.8318149699 0.3582274972 1
-43.8894156218 117.77823174 -10.4010338356 0.3829485438 1
-42.1116396189 117.77823174 -10.5015919623 -0.0178205181 1
-40.333863616 117.77823174 -10.4086231282 -0.2925772525 1
-38.5560876131 117.77823174 -10.1240618869 -0.1161476792 1
-36.7783116102 117.77823174 -10.0816019429 0.2236664759 1
-35.0005356073 117.77823174 -10.2379972158 0.3697732455 1
-33.2227596045 117.77823174 -10.4006930334 -0.0242556655 1
-31.4449836016 117.77823174 0 -0 0
-29.6672075987 117.77823174 -10.3370317561 -0.452215874 1
-27.8894315958 117.77823174 -10.4045449574 -0.3449448033 1
-26.1116555929 117.77823174 -10.4805510066 -0.4418385904 1
-24.33387959 117.77823174 -10.0439375726 -0.2670743656 1
-22.5561035872 117.77823174 -10.6342084064 0.1542316085 1
-20.7783275843 117.77823174 -11.2521214485 0.0416380094 1
-19.0005515814 117.77823174 -11.4080098139 0.1738291667 1
-17.2227755785 117.77823174 0 -0 0
-15.4449995756 117.77823174 -10.8175070055 0.820273653 1
-13.6672235727 117.77823174 -10.7270483657 0.1066925662 1
-11.8894475698 117.77823174 -10.6245313423 0.1889275631 1
-10.111671567 117.77823174 -10.7782216768 0.260029211 1
-8.3338955641 117.77823174 -11.0312186206 0.3402838321 1
-6.5561195612 117.77823174 -11.0273051231 0.0707651415 1
-4.7783435583 117.77823174 -10.9260023866 0.354109232 1
-3.0005675554 117.77823174 -10.5487200373 0.1494661056 1
-1.2227915525 117.77823174 -10.6263871392 -0.0593024458 1
0.5549844503 117.77823174 -10.611356044 0.2444625695 1