TITLE = "B00009"
VARIABLES = "x", "y", "Vx", "Vy", "isValid"
ZONE T="Frame 0", I=102, J=78, F=POINT
-125.6671117544 126.6671117544 0 -0 0
-123.8893357515 126.6671117544 0 -0 0
-122.1115597486 126.6671117544 0 -0 0
-120.3337837458 126.6671117544 0 -0 0
-118.5560077429 126.6671117544 0 -0 0
-116.77823174 126.6671117544 0 -0 0
-115.0004557371 126.6671117544 0 -0 0
-113.2226797342 126.6671117544 0 -0 0
-111.4449037313 126.6671117544 0 -0 0
-109.6671277285 126.6671117544 0 -0 0
-107.8893517256 126.6671117544 0 -0 0
-106.1115757227 126.6671117544 0 -0 0
-104.3337997198 126.6671117544 0 -0 0
-102.5560237169 126.6671117544 0 -0 0
-100.778247714 126.6671117544 0 -0 0
-99.0004717112 126.6671117544 0 -0 0
-97.2226957083 126.6671117544 0 -0 0
-95.4449197054 126.6671117544 0 -0 0
-93.6671437025 126.6671117544 0 -0 0
-91.8893676996 126.6671117544 0 -0 0
-90.1115916967 126.6671117544 0 -0 0
-88.3338156939 126.6671117544 0 -0 0
-86.556039691 126.6671117544 0 -0 0
-84.7782636881 126.6671117544 0 -0 0
-83.0004876852 126.6671117544 0 -0 0
-81.2227116823 126.6671117544 0 -0 0
-79.4449356794 126.6671117544 0 -0 0
-77.6671596766 126.6671117544 0 -0 0
-75.8893836737 126.6671117544 0 -0 0
-74.1116076708 126.6671117544 0 -0 0
-72.3338316679 126.6671117544 0 -0 0
-70.556055665 126.6671117544 0 -0 0
-68.7782796621 126.6671117544 0 -0 0
-67.0005036592 126.6671117544 0 -0 0
-65.2227276564 126.6671117544 0 -0 0
-63.4449516535 126.6671117544 0 -0 0
-61.6671756506 126.6671117544 0 -0 0
-59.8893996477 126.6671117544 0 -0 0
-58.1116236448 126.6671117544 0 -0 0
-56.3338476419 126.6671117544 0 -0 0
-54.5560716391 126.6671117544 0 -0 0
-52.7782956362 126.6671117544 0 -0 0
-51.0005196333 126.6671117544 0 -0 0
-49.2227436304 126.6671117544 0 -0 0
-47.4449676275 126.6671117544 0 -0 0
-45.6671916246 126.6671117544 0 -0 0
-43.8894156218 126.6671117544 0 -0 0
-42.1116396189 126.6671117544 0 -0 0
-40.333863616 126.6671117544 0 -0 0
-38.5560876131 126.6671117544 0 -0 0
-36.7783116102 126.6671117544 0 -0 0
-35.0005356073 126.6671117544 0 -0 0
-33.2227596045 126.6671117544 0 -0 0
-31.4449836016 126.6671117544 0 -0 0
-29.6672075987 126.6671117544 0 -0 0
-27.8894315958 126.6671117544 0 -0 0
-26.1116555929 126.6671117544 0 -0 0
-24.33387959 126.6671117544 0 -0 0
-22.5561035872 126.6671117544 0 -0 0
-20.7783275843 126.6671117544 0 -0 0
-19.0005515814 126.6671117544 0 -0 0
-17.2227755785 126.6671117544 0 -0 0
-15.4449995756 126.6671117544 0 -0 0
-13.6672235727 126.6671117544 0 -0 0
-11.8894475698 126.6671117544 0 -0 0
-10.111671567 126.6671117544 0 -0 0
-8.3338955641 126.6671117544 0 -0 0
-6.5561195612 126.6671117544 0 -0 0
-4.7783435583 126.6671117544 0 -0 0
-3.0005675554 126.6671117544 0 -0 0
-1.2227915525 126.6671117544 0 -0 0
0.5549844503 126.6671117544 0 -0 0
2.3327604532 126.6671117544 0 -0 0
4.1105364561 126.6671117544 0 -0 0
5.888312459 126.6671117544 0 -0 0
7.6660884619 126.6671117544 0 -0 0
9.4438644648 126.6671117544 0 -0 0
11.2216404676 126.6671117544 0 -0 0
12.9994164705 126.6671117544 0 -0 0
14.7771924734 126.6671117544 0 -0 0
16.5549684763 126.6671117544 0 -0 0
18.3327444792 126.6671117544 0 -0 0
20.1105204821 126.6671117544 0 -0 0
21.8882964849 126.6671117544 0 -0 0
23.6660724878 126.6671117544 0 -0 0
25.4438484907 126.6671117544 0 -0 0
27.2216244936 126.6671117544 0 -0 0
28.9994004965 126.6671117544 0 -0 0
30.7771764994 126.6671117544 0 -0 0
32.5549525023 126.6671117544 0 -0 0
34.3327285051 126.6671117544 0 -0 0
36.110504508 126.6671117544 0 -0 0
37.8882805109 126.6671117544 0 -0 0
39.6660565138 126.6671117544 0 -0 0
41.4438325167 126.6671117544 0 -0 0
43.2216085196 126.6671117544 0 -0 0
44.9993845224 126.6671117544 0 -0 0
46.7771605253 126.6671117544 0 -0 0
48.5549365282 126.6671117544 0 -0 0
50.3327125311 126.6671117544 0 -0 0
52.110488534 126.6671117544 0 -0 0
53.8882645369 126.6671117544 0 -0 0
-125.6671117544 124.8893357515 0 -0 0
-123.8893357515 124.8893357515 -10.3871554538 0.352259163 1
-122.1115597486 124.8893357515 -10.1752208786 0.264866311 1
-120.3337837458 124.8893357515 -9.8167785901 0.3008739245 1
-118.5560077429 124.8893357515 -9.7572269864 0.2431394551 1
-116.77823174 124.8893357515 -10.2217174672 -0.043967779 1
-115.0004557371 124.8893357515 -10.4058895509 0.0836526195 1
-113.2226797342 124.8893357515 -10.0969480653 0.31747586 1
-111.4449037313 124.8893357515 -10.0679039857 0.3026438048 1
-109.6671277285 124.8893357515 -10.111618311 0.0956279504 1
-107.8893517256 124.8893357515 -9.9624228425 0.0859766613 1
-106.1115757227 124.8893357515 -10.434375173 0.1092514465 1
-104.3337997198 124.8893357515 -10.6228774493 0.0265252935 1
-102.5560237169 124.8893357515 -10.142181681 -0.1364655042 1
-100.778247714 124.8893357515 -10.0313522344 -0.1761990307 1
-99.0004717112 124.8893357515 -10.1669958038 -0.0979376728 1
-97.2226957083 124.8893357515 -10.2373557057 0.0622937727 1
-95.4449197054 124.8893357515 -9.9384263585 0.1850713433 1
-93.6671437025 124.8893357515 -9.7761543957 -0.0808087827 1
-91.8893676996 124.8893357515 -10.0744379371 -0.4570973643 1
-90.1115916967 124.8893357515 -10.2117654703 -0.3085247905 1
-88.3338156939 124.8893357515 -10.3291746904 -0.3694725377 1
-86.556039691 124.8893357515 -9.8679504693 -0.4139830227 1
-84.7782636881 124.8893357515 -9.8651882532 -0.1888702854 1
-83.0004876852 124.8893357515 -10.4169097765 -0.1414429345 1
-81.2227116823 124.8893357515 -10.355525287 -0.0646722283 1
-79.4449356794 124.8893357515 -10.0735343817 -0.1319477272 1
-77.6671596766 124.8893357515 -10.0399252711 -0.0163857123 1
-75.8893836737 124.8893357515 -10.2610887124 0.2760383225 1
-74.1116076708 124.8893357515 -10.5833000045 -0.1344393062 1
-72.3338316679 124.8893357515 0 -0 0
-70.556055665 124.8893357515 0 -0 0
-68.7782796621 124.8893357515 0 -0 0
-67.0005036592 124.8893357515 0 -0 0
-65.2227276564 124.8893357515 0 -0 0
-63.4449516535 124.8893357515 0 -0 0
-61.6671756506 124.8893357515 0 -0 0
-59.8893996477 124.8893357515 0 -0 0
-58.1116236448 124.8893357515 -10.5917370068 0.4495424383 1
-56.3338476419 124.8893357515 -10.7838578005 0.0846950732 1
-54.5560716391 124.8893357515 -10.6508533001 -0.1011223118 1
-52.7782956362 124.8893357515 -10.2613808285 0.3353278808 1
-51.0005196333 124.8893357515 -10.1702105136 0.4156183005 1
-49.2227436304 124.8893357515 -9.8597325542 0.3353064017 1
-47.4449676275 124.8893357515 -9.6731748551 0.1282705001 1
-45.6671916246 124.8893357515 -9.8057125424 -0.0291400196 1
-43.8894156218 124.8893357515 -10.1860320407 -0.1368206258 1
-42.1116396189 124.8893357515 -10.3475980561 -0.2277532384 1
-40.333863616 124.8893357515 -10.5588180922 -0.478459075 1
-38.5560876131 124.8893357515 -10.7997652441 -0.4652193393 1
-36.7783116102 124.8893357515 -10.666508722 -0.0551727251 1
-35.0005356073 124.8893357515 -10.5388711402 -0.0937234675 1
-33.2227596045 124.8893357515 -11.2946229188 -0.1764324372 1
-31.4449836016 124.8893357515 -10.4564915172 -0.1562248718 1
-29.6672075987 124.8893357515 -10.4588313104 0.0525322241 1
-27.8894315958 124.8893357515 0 -0 0
-26.1116555929 124.8893357515 -10.305708025 0.9167822477 1
-24.33387959 124.8893357515 -9.6454080679 0.3497317854 1
-22.5561035872 124.8893357515 -10.0451303802 0.4106637812 1
-20.7783275843 124.8893357515 -10.2904936413 0.2016603913 1
-19.0005515814 124.8893357515 -10.4570514065 -0.0457047246 1
-17.2227755785 124.8893357515 -10.6043882143 -0.0361350563 1
-15.4449995756 124.8893357515 -10.6089289024 0.3239969238 1
-13.6672235727 124.8893357515 -10.4003021132 0.3576246496 1
-11.8894475698 124.8893357515 -10.1199063913 -0.172884085 1
-10.111671567 124.8893357515 -10.102952198 -0.5207686651 1
-8.3338955641 124.8893357515 -10.2366354389 -0.3649991509 1
-6.5561195612 124.8893357515 -10.423785962 0.0591034059 1
-4.7783435583 124.8893357515 -10.3739644041 0.4023671092 1
-3.0005675554 124.8893357515 -10.4650087082 0.6650382532 1
-1.2227915525 124.8893357515 -10.360388162 0.6697650937 1
0.5549844503 124.8893357515 -10.2354941811 0.2548914031 1
2.3327604532 124.8893357515 -10.296154108 -0.0031760473 1
4.1105364561 124.8893357515 -9.9809464441 -0.0206829702 1
5.888312459 124.8893357515 -10.1597759523 -0.1404248238 1
7.6660884619 124.8893357515 -10.3644577412 -0.3482253824 1
9.4438644648 124.8893357515 -10.1733865609 -0.6614498065 1
11.2216404676 124.8893357515 -10.5497080772 -0.3312267989 1
12.9994164705 124.8893357515 -10.6971995348 0.6230336667 1
14.7771924734 124.8893357515 0 -0 0
16.5549684763 124.8893357515 0 -0 0
18.3327444792 124.8893357515 0 -0 0
20.1105204821 124.8893357515 0 -0 0
21.8882964849 124.8893357515 0 -0 0
23.6660724878 124.8893357515 0 -0 0
25.4438484907 124.8893357515 0 -0 0
27.2216244936 124.8893357515 0 -0 0
28.9994004965 124.8893357515 0 -0 0
30.7771764994 124.8893357515 0 -0 0
32.5549525023 124.8893357515 0 -0 0
34.3327285051 124.8893357515 0 -0 0
36.110504508 124.8893357515 0 -0 0
37.8882805109 124.8893357515 -10.6089489495 1.0636780174 1
39.6660565138 124.8893357515 -10.3180155664 0.3855460866 1
41.4438325167 124.8893357515 -9.9795961228 -0.0762781182 1
43.2216085196 124.8893357515 -10.3135851379 0.294047857 1
44.9993845224 124.8893357515 -9.5993439258 0.5911371587 1
46.7771605253 124.8893357515 -9.7971352098 0.0146058084 1
48.5549365282 124.8893357515 -10.3185625683 0.096278052 1
50.3327125311 124.8893357515 -10.3618100804 0.2781676202 1
52.110488534 124.8893357515 0 -0 0
53.8882645369 124.8893357515 0 -0 0
-125.6671117544 123.1115597486 0 -0 0
-123.8893357515 123.1115597486 -10.4225072378 0.4098089118 1
-122.1115597486 123.1115597486 -10.3258626086 0.4212859269 1
-120.3337837458 123.1115597486 -9.8142726916 0.2182866698 1
-118.5560077429 123.1115597486 -9.5635410801 -0.0326182067 1
-116.77823174 123.1115597486 -9.603141436 0.088528382 1
-115.0004557371 123.1115597486 -10.0637900164 0.1818910001 1
-113.2226797342 123.1115597486 -10.1718099928 0.2382479413 1
-111.4449037313 123.1115597486 -10.4851790431 0.2059461937 1
-109.6671277285 123.1115597486 -10.0361836066 0.1072567513 1
-107.8893517256 123.1115597486 -9.7389826134 0.1670503533 1
-106.1115757227 123.1115597486 -10.3007749848 0.0230986563 1
-104.3337997198 123.1115597486 -10.4591978875 0.0500277575 1
-102.5560237169 123.1115597486 -10.1607024187 0.0087792364 1
-100.778247714 123.1115597486 -9.761088934 -0.1213542203 1
-99.0004717112 123.1115597486 -9.9187557713 -0.072111167 1
-97.2226957083 123.1115597486 -10.3314385907 0.0325838401 1
-95.4449197054 123.1115597486 -9.8714343842 0.209988566 1
-93.6671437025 123.1115597486 -9.9219948241 0.2657712984 1
-91.8893676996 123.1115597486 -10.3595834106 0.1351352301 1
-90.1115916967 123.1115597486 -10.3629713854 -0.2091952701 1
-88.3338156939 123.1115597486 -10.5610361704 -0.2310552966 1
-86.556039691 123.1115597486 -10.0723487337 -0.22790932 1
-84.7782636881 123.1115597486 -10.2032740543 -0.0368223884 1
-83.0004876852 123.1115597486 -10.8142249944 0.0069391909 1
-81.2227116823 123.1115597486 -10.3654787158 0.0070981365 1
-79.4449356794 123.1115597486 -10.3462405751 0.1561045886 1
-77.6671596766 123.1115597486 -10.3760937019 0.0013130908 1
-75.8893836737 123.1115597486 -10.2096662434 -0.2565195211 1
-74.1116076708 123.1115597486 -10.4451118741 -0.2979183962 1
-72.3338316679 123.1115597486 0 -0 0
-70.556055665 123.1115597486 0 -0 0
-68.7782796621 123.1115597486 0 -0 0
-67.0005036592 123.1115597486 0 -0 0
-65.2227276564 123.1115597486 0 -0 0
-63.4449516535 123.1115597486 0 -0 0
-61.6671756506 123.1115597486 0 -0 0
-59.8893996477 123.1115597486 -10.0123117016 -0.8859596963 1
-58.1116236448 123.1115597486 -10.4747588012 0.4987640125 1
-56.3338476419 123.1115597486 -11.129512847 0.37884603 1
-54.5560716391 123.1115597486 -10.5607812847 0.0609720902 1
-52.7782956362 123.1115597486 -9.9077942553 0.3048575871 1
-51.0005196333 123.1115597486 -9.8669867723 0.1210363292 1
-49.2227436304 123.1115597486 -9.9605799331 -0.0953587453 1
-47.4449676275 123.1115597486 -10.0102654565 -0.0864892966 1
-45.6671916246 123.1115597486 -10.2945216941 -0.2133765407 1
-43.8894156218 123.1115597486 -10.6881926196 -0.0880229064 1
-42.1116396189 123.1115597486 -10.6123140132 -0.2163506842 1
-40.333863616 123.1115597486 -10.8058051755 -0.1185189751 1
-38.5560876131 123.1115597486 -10.9779446506 0.0468273672 1
-36.7783116102 123.1115597486 -10.8040481826 0.2658801259 1
-35.0005356073 123.1115597486 -10.7079476914 0.2839898964 1
-33.2227596045 123.1115597486 -10.7830673685 0.0702467785 1
-31.4449836016 123.1115597486 -9.900963892 -0.0888706161 1
-29.6672075987 123.1115597486 -10.00089626 0.091243344 1
-27.8894315958 123.1115597486 -10.2731542556 0.1239689464 1
-26.1116555929 123.1115597486 -9.9571504321 -0.0761492434 1
-24.33387959 123.1115597486 -9.8050151866 0.2531186589 1
-22.5561035872 123.1115597486 -9.4020595492 0.1708364079 1
-20.7783275843 123.1115597486 -10.4947587351 -0.0192624837 1
-19.0005515814 123.1115597486 -10.4508367782 0.0756509276 1
-17.2227755785 123.1115597486 -10.3781299234 0.2407624314 1
-15.4449995756 123.1115597486 -10.5992747494 0.4793697901 1
-13.6672235727 123.1115597486 -10.4403621225 0.4308813702 1
-11.8894475698 123.1115597486 -10.166003468 0.3903688673 1
-10.111671567 123.1115597486 -10.572871171 -0.4199155584 1
-8.3338955641 123.1115597486 -10.5841419864 -0.2639240932 1
-6.5561195612 123.1115597486 -10.4658306429 0.7774485638 1
-4.7783435583 123.1115597486 -10.4070494239 0.9113508918 1
-3.0005675554 123.1115597486 -10.1189885165 0.5307135023 1
-1.2227915525 123.1115597486 -10.0696538189 0.2855464173 1
0.5549844503 123.1115597486 -10.1843051187 0.2077461448 1
2.3327604532 123.1115597486 -10.5382568371 0.1797817496 1
4.1105364561 123.1115597486 -10.3704733295 0.1245102204 1
5.888312459 123.1115597486 -10.3018732843 0.2219467136 1
7.6660884619 123.1115597486 -10.3088855043 0.1181967882 1
9.4438644648 123.1115597486 -9.865142431 -0.1746052792 1
11.2216404676 123.1115597486 -10.3084029398 -0.1005438073 1
12.9994164705 123.1115597486 -10.4563626424 0.9426932382 1
14.7771924734 123.1115597486 0 -0 0
16.5549684763 123.1115597486 0 -0 0
18.3327444792 123.1115597486 0 -0 0
20.1105204821 123.1115597486 0 -0 0
21.8882964849 123.1115597486 0 -0 0
23.6660724878 123.1115597486 0 -0 0
25.4438484907 123.1115597486 0 -0 0
27.2216244936 123.1115597486 0 -0 0
28.9994004965 123.1115597486 0 -0 0
30.7771764994 123.1115597486 0 -0 0
32.5549525023 123.1115597486 0 -0 0
34.3327285051 123.1115597486 0 -0 0
36.110504508 123.1115597486 0 -0 0
37.8882805109 123.1115597486 -10.5719690475 0.9258006184 1
39.6660565138 123.1115597486 -10.0837699031 0.5521926322 1
41.4438325167 123.1115597486 -9.5776485726 0.6654177178 1
43.2216085196 123.1115597486 -9.6677320436 0.6809686079 1
44.9993845224 123.1115597486 -9.8742137836 0.4215107418 1
46.7771605253 123.1115597486 -10.2923752131 0.1884865249 1
48.5549365282 123.1115597486 -10.2047231796 0.4663319582 1
50.3327125311 123.1115597486 -10.3061533589 0.5448882961 1
52.110488534 123.1115597486 0 -0 0
53.8882645369 123.1115597486 0 -0 0
-125.6671117544 121.3337837458 0 -0 0
-123.8893357515 121.3337837458 -10.4330606503 -0.0021178422 1
-122.1115597486 121.3337837458 -10.2975316362 0.2240545322 1
-120.3337837458 121.3337837458 -9.6862527814 0.1338736892 1
-118.5560077429 121.3337837458 -9.4551373432 -0.179771726 1
-116.77823174 121.3337837458 -9.671400679 0.0198868104 1
-115.0004557371 121.3337837458 -10.0181082028 0.1911384815 1
-113.2226797342 121.3337837458 -10.0458663984 0.0673442321 1
-111.4449037313 121.3337837458 -10.0429581242 -0.0898772713 1
-109.6671277285 121.3337837458 -9.9462819923 -0.1107363704 1
-107.8893517256 121.3337837458 -10.1648392992 0.0890481769 1
-106.1115757227 121.3337837458 -10.1222776872 -0.0232375547 1
-104.3337997198 121.3337837458 -10.1553956417 -0.0674988818 1
-102.5560237169 121.3337837458 -10.1509766687 0.1493400947 1
-100.778247714 121.3337837458 -9.8922605486 0.0543794292 1
-99.0004717112 121.3337837458 -9.9440796655 -0.0008090472 1
-97.2226957083 121.3337837458 -9.9107769905 0.2217677208 1
-95.4449197054 121.3337837458 -9.5960361398 0.2729009376 1
-93.6671437025 121.3337837458 -10.0694862817 0.3046599791 1
-91.8893676996 121.3337837458 -10.5107893257 0.0070050602 1
-90.1115916967 121.3337837458 -10.5235221539 -0.4660255226 1
-88.3338156939 121.3337837458 -10.3203310166 -0.3539359671 1
-86.556039691 121.3337837458 -10.0638129275 -0.2744846654 1
-84.7782636881 121.3337837458 -10.5750376992 0.0346730435 1
-83.0004876852 121.3337837458 -10.7308773786 0.114622661 1
-81.2227116823 121.3337837458 -10.3887076789 -0.0020047188 1
-79.4449356794 121.3337837458 -10.3817369853 0.1828375138 1
-77.6671596766 121.3337837458 -10.3517163213 0.0657934389 1
-75.8893836737 121.3337837458 -10.1609215059 -0.3054862096 1
-74.1116076708 121.3337837458 -9.7127780749 -0.0717732287 1
-72.3338316679 121.3337837458 0 -0 0
-70.556055665 121.3337837458 0 -0 0
-68.7782796621 121.3337837458 0 -0 0
-67.0005036592 121.3337837458 0 -0 0
-65.2227276564 121.3337837458 0 -0 0
-63.4449516535 121.3337837458 0 -0 0
-61.6671756506 121.3337837458 0 -0 0
-59.8893996477 121.3337837458 0 -0 0
-58.1116236448 121.3337837458 -10.1656698255 -0.0041741109 1
-56.3338476419 121.3337837458 -10.5988093683 -0.0521226887 1
-54.5560716391 121.3337837458 -10.3830443483 0.0047540474 1
-52.7782956362 121.3337837458 -9.8706869105 0.1836265138 1
-51.0005196333 121.3337837458 -9.7016561814 0.0682950416 1
-49.2227436304 121.3337837458 -9.9713352495 -0.1694044659 1
-47.4449676275 121.3337837458 -10.2109721745 -0.423184682 1
-45.6671916246 121.3337837458 -10.2054806769 -0.3294053687 1
-43.8894156218 121.3337837458 -9.973173863 0.1511300222 1
-42.1116396189 121.3337837458 -10.6289188126 0.2189296118 1
-40.333863616 121.3337837458 -10.8570686989 -0.0164816524 1
-38.5560876131 121.3337837458 -10.8920181072 -0.1325505748 1
-36.7783116102 121.3337837458 -10.4634464594 -0.0623610739 1
-35.0005356073 121.3337837458 -10.6050239965 0.1214315452 1
-33.2227596045 121.3337837458 -10.4125409215 0.0149279953 1
-31.4449836016 121.3337837458 -9.8965191441 -0.1511185666 1
-29.6672075987 121.3337837458 -9.9534073357 -0.2635159897 1
-27.8894315958 121.3337837458 0 -0 0
-26.1116555929 121.3337837458 -10.2577179209 -0.6662926344 1
-24.33387959 121.3337837458 -10.0689994214 0.1897566575 1
-22.5561035872 121.3337837458 -9.7321422265 -0.0800255104 1
-20.7783275843 121.3337837458 -10.2186516794 -0.2824462629 1
-19.0005515814 121.3337837458 -10.2889614633 0.0991462319 1
-17.2227755785 121.3337837458 -10.1212151863 0.373934469 1
-15.4449995756 121.3337837458 -10.6602668868 0.5037858331 1
-13.6672235727 121.3337837458 -10.5551924151 0.451081776 1
-11.8894475698 121.3337837458 -10.0561821086 0.2536184066 1
-10.111671567 121.3337837458 -10.231324366 0.0586824149 1
-8.3338955641 121.3337837458 -10.7318482352 0.186385866 1
-6.5561195612 121.3337837458 -10.6236779049 0.9564599285 1
-4.7783435583 121.3337837458 -10.6151177557 1.2238034992 1
-3.0005675554 121.3337837458 -10.5411608155 0.7788389794 1
-1.2227915525 121.3337837458 -10.3470066641 0.301675812 1
0.5549844503 121.3337837458 -9.912690065 0.4468518193 1
2.3327604532 121.3337837458 -10.9184274135 0.6948956757 1
4.1105364561 121.3337837458 -11.000078178 0.4111277304 1
5.888312459 121.3337837458 -10.3442573355 0.487099413 1
7.6660884619 121.3337837458 -9.9030960536 0.4736377263 1
9.4438644648 121.3337837458 -9.7193034346 0.2702060227 1
11.2216404676 121.3337837458 -10.2976118249 0.5488920059 1
12.9994164705 121.3337837458 -10.8647711149 0.4003609585 1
14.7771924734 121.3337837458 0 -0 0
16.5549684763 121.3337837458 0 -0 0
18.3327444792 121.3337837458 0 -0 0
20.1105204821 121.3337837458 0 -0 0
21.8882964849 121.3337837458 0 -0 0
23.6660724878 121.3337837458 0 -0 0
25.4438484907 121.3337837458 0 -0 0
27.2216244936 121.3337837458 0 -0 0
28.9994004965 121.3337837458 0 -0 0
30.7771764994 121.3337837458 0 -0 0
32.5549525023 121.3337837458 0 -0 0
34.3327285051 121.3337837458 0 -0 0
36.110504508 121.3337837458 0 -0 0
37.8882805109 121.3337837458 -10.530014579 0.6890075303 1
39.6660565138 121.3337837458 -10.1373531726 0.5957036217 1
41.4438325167 121.3337837458 -9.6066969479 0.8804180808 1
43.2216085196 121.3337837458 0 -0 0
44.9993845224 121.3337837458 -10.1667666931 0.5684394461 1
46.7771605253 121.3337837458 -10.7439137785 0.4127558484 1
48.5549365282 121.3337837458 -10.6583065582 0.2630191058 1
50.3327125311 121.3337837458 -10.6303020686 -0.0521355761 1
52.110488534 121.3337837458 -11.4107620064 0.5518346467 1
53.8882645369 121.3337837458 0 -0 0
-125.6671117544 119.5560077429 0 -0 0
-123.8893357515 119.5560077429 -10.1500788411 -0.2153740998 1
-122.1115597486 119.5560077429 -10.1081716266 0.0533627504 1
-120.3337837458 119.5560077429 -9.8312340446 -0.1389298763 1
-118.5560077429 119.5560077429 -9.722057059 -0.1938376922 1
-116.77823174 119.5560077429 -10.2754625461 0.1348617291 1
-115.0004557371 119.5560077429 -10.4874400795 0.2407638633 1
-113.2226797342 119.5560077429 -10.1654464426 0.014416792 1
-111.4449037313 119.5560077429 -10.1953597109 -0.1789440635 1
-109.6671277285 119.5560077429 -10.2298322825 -0.215616098 1
-107.8893517256 119.5560077429 -10.1032700892 -0.1669243424 1
-106.1115757227 119.5560077429 -9.9312251222 -0.3382347231 1
-104.3337997198 119.5560077429 -9.9670236721 -0.1743761685 1
-102.5560237169 119.5560077429 -10.0800153511 0.2677130117 1
-100.778247714 119.5560077429 -10.2408582359 0.3782231353 1
-99.0004717112 119.5560077429 -10.2491878425 0.2400006383 1
-97.2226957083 119.5560077429 -10.1107648736 0.2240445086 1
-95.4449197054 119.5560077429 -10.0797790807 0.3116507199 1
-93.6671437025 119.5560077429 -9.966582634 0.0885441333 1
-91.8893676996 119.5560077429 -10.1922395093 -0.162021373 1
-90.1115916967 119.5560077429 -10.12729378 -0.3744614236 1
-88.3338156939 119.5560077429 -8.9944014143 -0.1791731742 1
-86.556039691 119.5560077429 -9.6737819985 -0.0615964169 1
-84.7782636881 119.5560077429 -10.221574273 -0.0790417662 1
-83.0004876852 119.5560077429 -10.493378343 0.0971357853 1
-81.2227116823 119.5560077429 -10.3244091874 0.2389495928 1
-79.4449356794 119.5560077429 -10.1920118305 0.1086801017 1
-77.6671596766 119.5560077429 -10.0264592886 0.0354076297 1
-75.8893836737 119.5560077429 -9.6912101645 0.0230556981 1
-74.1116076708 119.5560077429 -9.2744864048 0.0075148316 1
-72.3338316679 119.5560077429 0 -0 0
-70.556055665 119.5560077429 0 -0 0
-68.7782796621 119.5560077429 0 -0 0
-67.0005036592 119.5560077429 0 -0 0
-65.2227276564 119.5560077429 0 -0 0
-63.4449516535 119.5560077429 0 -0 0
-61.6671756506 119.5560077429 0 -0 0
-59.8893996477 119.5560077429 -10.4153618472 -0.2393004186 1
-58.1116236448 119.5560077429 -10.3591939224 -0.4250705496 1
-56.3338476419 119.5560077429 -10.3159421144 -0.6783624735 1
-54.5560716391 119.5560077429 -10.4299046501 -0.2254950658 1
-52.7782956362 119.5560077429 -10.1118302384 0.0165933439 1
-51.0005196333 119.5560077429 -9.8893980965 -0.0134588228 1
-49.2227436304 119.5560077429 -10.1258990685 -0.0854382511 1
-47.4449676275 119.5560077429 -10.1292641322 -0.3648588206 1
-45.6671916246 119.5560077429 -10.2314088506 -0.2993345868 1
-43.8894156218 119.5560077429 -10.1352310345 -0.0442699188 1
-42.1116396189 119.5560077429 -10.5078051586 -0.0461457628 1
-40.333863616 119.5560077429 -10.9367219044 -0.1844914068 1
-38.5560876131 119.5560077429 -10.7571678336 -0.5462056828 1
-36.7783116102 119.5560077429 -10.3523778785 -0.4627936295 1
-35.0005356073 119.5560077429 -10.4912619327 -0.1695347726 1
-33.2227596045 119.5560077429 -10.298102981 -0.1849668115 1
-31.4449836016 119.5560077429 -9.8842789039 -0.1409546423 1
-29.6672075987 119.5560077429 -9.8611745198 0.3692019007 1
-27.8894315958 119.5560077429 -10.0776927412 -0.4624227566 1
-26.1116555929 119.5560077429 -10.5882602516 -0.4984776241 1
-24.33387959 119.5560077429 -10.6768187043 0.3559650289 1
-22.5561035872 119.5560077429 -10.3741505566 0.3440641589 1
-20.7783275843 119.5560077429 -9.9119182483 -0.0290698545 1
-19.0005515814 119.5560077429 -9.8218805995 0.0820731874 1
-17.2227755785 119.5560077429 -10.192369816 0.3817858069 1
-15.4449995756 119.5560077429 -10.5837095399 0.7600647879 1
-13.6672235727 119.5560077429 -9.9981755702 0.9006714684 1
-11.8894475698 119.5560077429 0 -0 0
-10.111671567 119.5560077429 -10.0794941243 0.112672356 1
-8.3338955641 119.5560077429 -10.6448176646 0.5631541482 1
-6.5561195612 119.5560077429 -10.7119642887 0.5899386233 1
-4.7783435583 119.5560077429 -11.2635998955 0.7243006046 1
-3.0005675554 119.5560077429 0 -0 0
-1.2227915525 119.5560077429 -10.6591299249 0.4959889089 1
0.5549844503 119.5560077429 -9.8020396112 0.2674481024 1
2.3327604532 119.5560077429 -10.2778381379 0.3889999307 1
4.1105364561 119.5560077429 -10.5044286394 0.5032058966 1
5.888312459 119.5560077429 -10.0782784055 0.6669341444 1
7.6660884619 119.5560077429 -9.8534563524 0.6247806359 1
9.4438644648 119.5560077429 -10.1866835743 0.162440932 1
11.2216404676 119.5560077429 -9.9339171732 0.4538239449 1
12.9994164705 119.5560077429 -10.588768591 0.0235568778 1
14.7771924734 119.5560077429 0 -0 0
16.5549684763 119.5560077429 0 -0 0
18.3327444792 119.5560077429 0 -0 0
20.1105204821 119.5560077429 0 -0 0
21.8882964849 119.5560077429 0 -0 0
23.6660724878 119.5560077429 0 -0 0
25.4438484907 119.5560077429 0 -0 0
27.2216244936 119.5560077429 0 -0 0
28.9994004965 119.5560077429 0 -0 0
30.7771764994 119.5560077429 0 -0 0
32.5549525023 119.5560077429 0 -0 0
34.3327285051 119.5560077429 0 -0 0
36.110504508 119.5560077429 -10.4402174964 0.3994974975 1
37.8882805109 119.5560077429 -10.1678936314 0.6579415487 1
39.6660565138 119.5560077429 -10.2222272385 0.2894040691 1
41.4438325167 119.5560077429 -10.0404049717 0.4910114785 1
43.2216085196 119.5560077429 -9.8637634709 0.7476885133 1
44.9993845224 119.5560077429 -9.993047786 0.4087850733 1
46.7771605253 119.5560077429 -10.5026301202 0.551582625 1
48.5549365282 119.5560077429 -10.6513945742 0.5231685999 1
50.3327125311 119.5560077429 0 -0 0
52.110488534 119.5560077429 -10.2885189933 1.0367775551 1
53.8882645369 119.5560077429 0 -0 0
-125.6671117544 117.77823174 0 -0 0
-123.8893357515 117.77823174 -10.0605323484 -0.2083275132 1
-122.1115597486 117.77823174 -9.9183619873 -0.1998833513 1
-120.3337837458 117.77823174 -10.0965943756 -0.2573414558 1
-118.5560077429 117.77823174 -10.145711418 0.0422021945 1
-116.77823174 117.77823174 -10.230856121 -0.032241606 1
-115.0004557371 117.77823174 -10.4120955875 -0.1578057357 1
-113.2226797342 117.77823174 -10.2557819353 -0.0801171547 1
-111.4449037313 117.77823174 -10.1896233512 -0.087687832 1
-109.6671277285 117.77823174 -10.0045921023 0.0286230886 1
-107.8893517256 117.77823174 -10.0439833947 0.0785491782 1
-106.1115757227 117.77823174 -9.9610095157 0.0468144797 1
-104.3337997198 117.77823174 -9.8523365738 -0.1044973991 1
-102.5560237169 117.77823174 -9.9289225595 -0.0980450685 1
-100.778247714 117.77823174 -10.0418455053 0.2460462974 1
-99.0004717112 117.77823174 -9.9953746917 0.3037148974 1
-97.2226957083 117.77823174 -10.1106918445 0.239588239 1
-95.4449197054 117.77823174 -10.1936471082 0.1720077365 1
-93.6671437025 117.77823174 -10.0152357272 -0.2810186167 1
-91.8893676996 117.77823174 -9.5273616336 -0.521957177 1
-90.1115916967 117.77823174 -9.3599604545 -0.3141437309 1
-88.3338156939 117.77823174 -9.2642050613 0.1078066171 1
-86.556039691 117.77823174 -9.517993869 0.0019732161 1
-84.7782636881 117.77823174 -10.0688376119 -0.2848433338 1
-83.0004876852 117.77823174 -10.4097429068 -0.0838788663 1
-81.2227116823 117.77823174 -9.9154350978 0.1984284982 1
-79.4449356794 117.77823174 -9.8744142555 0.1149806465 1
-77.6671596766 117.77823174 -9.9622209387 -0.0907865545 1
-75.8893836737 117.77823174 -9.7562890644 0.1113578332 1
-74.1116076708 117.77823174 -9.6332222415 0.1798017967 1
-72.3338316679 117.77823174 0 -0 0
-70.556055665 117.77823174 0 -0 0
-68.7782796621 117.77823174 0 -0 0
-67.0005036592 117.77823174 0 -0 0
-65.2227276564 117.77823174 0 -0 0
-63.4449516535 117.77823174 0 -0 0
-61.6671756506 117.77823174 -10.4660755049 -0.2055452499 1
-59.8893996477 117.77823174 -11.1071831435 -0.2783294297 1
-58.1116236448 117.77823174 -10.7320229322 -0.2332017777 1
-56.3338476419 117.77823174 -10.3425390051 -0.5741142323 1
-54.5560716391 117.77823174 -10.3830371886 -0.1396888056 1
-52.7782956362 117.77823174 -10.3121460362 -0.1520307137 1
-51.0005196333 117.77823174 -10.2634628722 -0.257510425 1
-49.2227436304 117.77823174 -10.0707177518 -0.1518459931 1
-47.4449676275 117.77823174 -10.1413382671 -0.4417698572 1
-45.6671916246 117.77823174 -10.5354903251 -0.4590104388 1
-43.8894156218 117.77823174 -10.2089517043 -0.3815695837 1
-42.1116396189 117.77823174 -10.2447244792 -0.0756451998 1
-40.333863616 117.77823174 -10.6588736072 -0.1225484599 1
-38.5560876131 117.77823174 -10.5796542802 -0.2921333505 1
-36.7783116102 117.77823174 -10.3673445363 0.1068744228 1
-35.0005356073 117.77823174 -10.3059672065 0.1292313332 1
-33.2227596045 117.77823174 -10.0788397268 -0.0987796547 1
-31.4449836016 117.77823174 -9.4862806497 0.4713337316 1
-29.6672075987 117.77823174 -11.0660992957 -0.7883012522 1
-27.8894315958 117.77823174 -9.9869018909 0.4058209533 1
-26.1116555929 117.77823174 -10.5548931392 0.1170340513 1
-24.33387959 117.77823174 -11.2708827525 -0.1773431523 1
-22.5561035872 117.77823174 -10.7666358341 0.1524159061 1
-20.7783275843 117.77823174 -9.9656404162 0.0512177013 1
-19.0005515814 117.77823174 -9.8480378839 0.3362715306 1
-17.2227755785 117.77823174 -10.3219605666 0.8105708141 1
-15.4449995756 117.77823174 -10.2713313935 0.432021196 1
-13.6672235727 117.77823174 -9.445982938 0.32670759 1
-11.8894475698 117.77823174 -10.2443192397 0.2508547586 1
-10.111671567 117.77823174 -10.5845443621 0.0494821876 1
-8.3338955641 117.77823174 -10.5321682197 0.394325323 1
-6.5561195612 117.77823174 0 -0 0
-4.7783435583 117.77823174 0 -0 0
-3.0005675554 117.77823174 0 -0 0
-1.2227915525 117.77823174 -10.6156146395 0.3618989965 1
0.5549844503 117.77823174 -10.29432695 0.1443640962 1
2.3327604532 117.77823174 -10.3781700177 0.3394604654 1
4.1105364561 117.77823174 -10.2494398642 0.5421375355 1