TITLE = "B00002"
VARIABLES = "x", "y", "Vx", "Vy", "isValid"
ZONE T="Frame 0", I=102, J=78, F=POINT
-125.6671117544 126.6671117544 0 -0 0
-123.8893357515 126.6671117544 0 -0 0
-122.1115597486 126.6671117544 0 -0 0
-120.3337837458 126.6671117544 0 -0 0
-118.5560077429 126.6671117544 0 -0 0
-116.77823174 126.6671117544 0 -0 0
-115.0004557371 126.6671117544 0 -0 0
-113.2226797342 126.6671117544 0 -0 0
-111.4449037313 126.6671117544 0 -0 0
-109.6671277285 126.6671117544 0 -0 0
-107.8893517256 126.6671117544 0 -0 0
-106.1115757227 126.6671117544 0 -0 0
-104.3337997198 126.6671117544 0 -0 0
-102.5560237169 126.6671117544 0 -0 0
-100.778247714 126.6671117544 0 -0 0
-99.0004717112 126.6671117544 0 -0 0
-97.2226957083 126.6671117544 0 -0 0
-95.4449197054 126.6671117544 0 -0 0
-93.6671437025 126.6671117544 0 -0 0
-91.8893676996 126.6671117544 0 -0 0
-90.1115916967 126.6671117544 0 -0 0
-88.3338156939 126.6671117544 0 -0 0
-86.556039691 126.6671117544 0 -0 0
-84.7782636881 126.6671117544 0 -0 0
-83.0004876852 126.6671117544 0 -0 0
-81.2227116823 126.6671117544 0 -0 0
-79.4449356794 126.6671117544 0 -0 0
-77.6671596766 126.6671117544 0 -0 0
-75.8893836737 126.6671117544 0 -0 0
-74.1116076708 126.6671117544 0 -0 0
-72.3338316679 126.6671117544 0 -0 0
-70.556055665 126.6671117544 0 -0 0
-68.7782796621 126.6671117544 0 -0 0
-67.0005036592 126.6671117544 0 -0 0
-65.2227276564 126.6671117544 0 -0 0
-63.4449516535 126.6671117544 0 -0 0
-61.6671756506 126.6671117544 0 -0 0
-59.8893996477 126.6671117544 0 -0 0
-58.1116236448 126.6671117544 0 -0 0
-56.3338476419 126.6671117544 0 -0 0
-54.5560716391 126.6671117544 0 -0 0
-52.7782956362 126.6671117544 0 -0 0
-51.0005196333 126.6671117544 0 -0 0
-49.2227436304 126.6671117544 0 -0 0
-47.4449676275 126.6671117544 0 -0 0
-45.6671916246 126.6671117544 0 -0 0
-43.8894156218 126.6671117544 0 -0 0
-42.1116396189 126.6671117544 0 -0 0
-40.333863616 126.6671117544 0 -0 0
-38.5560876131 126.6671117544 0 -0 0
-36.7783116102 126.6671117544 0 -0 0
-35.0005356073 126.6671117544 0 -0 0
-33.2227596045 126.6671117544 0 -0 0
-31.4449836016 126.6671117544 0 -0 0
-29.6672075987 126.6671117544 0 -0 0
-27.8894315958 126.6671117544 0 -0 0
-26.1116555929 126.6671117544 0 -0 0
-24.33387959 126.6671117544 0 -0 0
-22.5561035872 126.6671117544 0 -0 0
-20.7783275843 126.6671117544 0 -0 0
-19.0005515814 126.6671117544 0 -0 0
-17.2227755785 126.6671117544 0 -0 0
-15.4449995756 126.6671117544 0 -0 0
-13.6672235727 126.6671117544 0 -0 0
-11.8894475698 126.6671117544 0 -0 0
-10.111671567 126.6671117544 0 -0 0
-8.3338955641 126.6671117544 0 -0 0
-6.5561195612 126.6671117544 0 -0 0
-4.7783435583 126.6671117544 0 -0 0
-3.0005675554 126.6671117544 0 -0 0
-1.2227915525 126.6671117544 0 -0 0
0.5549844503 126.6671117544 0 -0 0
2.3327604532 126.6671117544 0 -0 0
4.1105364561 126.6671117544 0 -0 0
5.888312459 126.6671117544 0 -0 0
7.6660884619 126.6671117544 0 -0 0
9.4438644648 126.6671117544 0 -0 0
11.2216404676 126.6671117544 0 -0 0
12.9994164705 126.6671117544 0 -0 0
14.7771924734 126.6671117544 0 -0 0
16.5549684763 126.6671117544 0 -0 0
18.3327444792 126.6671117544 0 -0 0
20.1105204821 126.6671117544 0 -0 0
21.8882964849 126.6671117544 0 -0 0
23.6660724878 126.6671117544 0 -0 0
25.4438484907 126.6671117544 0 -0 0
27.2216244936 126.6671117544 0 -0 0
28.9994004965 126.6671117544 0 -0 0
30.7771764994 126.6671117544 0 -0 0
32.5549525023 126.6671117544 0 -0 0
34.3327285051 126.6671117544 0 -0 0
36.110504508 126.6671117544 0 -0 0
37.8882805109 126.6671117544 0 -0 0
39.6660565138 126.6671117544 0 -0 0
41.4438325167 126.6671117544 0 -0 0
43.2216085196 126.6671117544 0 -0 0
44.9993845224 126.6671117544 0 -0 0
46.7771605253 126.6671117544 0 -0 0
48.5549365282 126.6671117544 0 -0 0
50.3327125311 126.6671117544 0 -0 0
52.110488534 126.6671117544 0 -0 0
53.8882645369 126.6671117544 0 -0 0
-125.6671117544 124.8893357515 0 -0 0
-123.8893357515 124.8893357515 -10.308298408 -0.0818311893 1
-122.1115597486 124.8893357515 -10.0705115521 -0.1231226686 1
-120.3337837458 124.8893357515 -9.9817755386 -0.1062658475 1
-118.5560077429 124.8893357515 -10.0440578557 -0.3325069551 1
-116.77823174 124.8893357515 -10.0042770751 -0.1476203323 1
-115.0004557371 124.8893357515 -10.2104466517 0.2267408554 1
-113.2226797342 124.8893357515 -9.8581703055 0.3809781917 1
-111.4449037313 124.8893357515 -9.802711192 0.2263628227 1
-109.6671277285 124.8893357515 -10.0767949136 0.0193340808 1
-107.8893517256 124.8893357515 -9.9357658103 0.1859391001 1
-106.1115757227 124.8893357515 -9.9415580157 0.1263201951 1
-104.3337997198 124.8893357515 -9.6852862205 -0.1351896439 1
-102.5560237169 124.8893357515 -9.9615794287 -0.2972697264 1
-100.778247714 124.8893357515 -9.7742055226 -0.1937374562 1
-99.0004717112 124.8893357515 -9.7808354141 0.0046581073 1
-97.2226957083 124.8893357515 -10.2315305657 -0.1768247893 1
-95.4449197054 124.8893357515 -10.6210488594 -0.0315299308 1
-93.6671437025 124.8893357515 -10.3266029226 0.1679023588 1
-91.8893676996 124.8893357515 -10.3565849241 -0.0244203388 1
-90.1115916967 124.8893357515 -10.0504643642 0.0522358121 1
-88.3338156939 124.8893357515 -9.8476025735 0.1238486632 1
-86.556039691 124.8893357515 -9.6239976711 0.3943582577 1
-84.7782636881 124.8893357515 -9.8423988963 0.4549222444 1
-83.0004876852 124.8893357515 -11.0391229404 -0.2422946093 1
-81.2227116823 124.8893357515 -10.751405699 -0.2291608373 1
-79.4449356794 124.8893357515 -10.6328437656 0.0215492951 1
-77.6671596766 124.8893357515 -10.7129351454 0.5252291645 1
-75.8893836737 124.8893357515 -10.335009854 0.5715424644 1
-74.1116076708 124.8893357515 -10.0588584082 0.2636892547 1
-72.3338316679 124.8893357515 0 -0 0
-70.556055665 124.8893357515 0 -0 0
-68.7782796621 124.8893357515 0 -0 0
-67.0005036592 124.8893357515 0 -0 0
-65.2227276564 124.8893357515 0 -0 0
-63.4449516535 124.8893357515 0 -0 0
-61.6671756506 124.8893357515 0 -0 0
-59.8893996477 124.8893357515 -10.1875842658 -0.0394729131 1
-58.1116236448 124.8893357515 -9.6401012908 -0.0195975582 1
-56.3338476419 124.8893357515 -10.0353230095 -0.028588722 1
-54.5560716391 124.8893357515 -10.243594677 -0.6783438582 1
-52.7782956362 124.8893357515 -10.344615321 -0.8704531964 1
-51.0005196333 124.8893357515 -10.4913993991 0.1108523577 1
-49.2227436304 124.8893357515 -10.6711381904 0.3822354367 1
-47.4449676275 124.8893357515 -10.948508219 0.0703384228 1
-45.6671916246 124.8893357515 -10.8782743279 -0.1904268063 1
-43.8894156218 124.8893357515 -10.4124277981 -0.0575125183 1
-42.1116396189 124.8893357515 -10.2990136961 0.1164183162 1
-40.333863616 124.8893357515 -10.6198760989 -0.1082161525 1
-38.5560876131 124.8893357515 -10.5072381096 -0.4206114822 1
-36.7783116102 124.8893357515 -10.6011692087 -0.1698555276 1
-35.0005356073 124.8893357515 -10.8329462041 0.0793739768 1
-33.2227596045 124.8893357515 -10.6042178132 -0.2586545466 1
-31.4449836016 124.8893357515 -11.059450789 -0.3906781667 1
-29.6672075987 124.8893357515 -9.9927098476 -0.0794298225 1
-27.8894315958 124.8893357515 0 -0 0
-26.1116555929 124.8893357515 0 -0 0
-24.33387959 124.8893357515 0 -0 0
-22.5561035872 124.8893357515 -9.9920783612 0.2711210337 1
-20.7783275843 124.8893357515 -10.4760275018 0.6373774296 1
-19.0005515814 124.8893357515 -11.0272879398 0.6974001423 1
-17.2227755785 124.8893357515 -11.2848628022 -0.4582629651 1
-15.4449995756 124.8893357515 -10.0934541268 -0.4807816849 1
-13.6672235727 124.8893357515 -10.0680657952 -0.1774662993 1
-11.8894475698 124.8893357515 -10.3635670733 -0.1625554873 1
-10.111671567 124.8893357515 -10.7629213766 0.139753243 1
-8.3338955641 124.8893357515 -10.9968119183 0.2800391684 1
-6.5561195612 124.8893357515 -10.6739677078 -0.0771630583 1
-4.7783435583 124.8893357515 -10.6192274292 -0.2077962628 1
-3.0005675554 124.8893357515 -10.8762409703 -0.1641163041 1
-1.2227915525 124.8893357515 -10.5538191827 -0.0743235174 1
0.5549844503 124.8893357515 -10.5553399051 0.1858102254 1
2.3327604532 124.8893357515 -11.2177705919 0.0204194929 1
4.1105364561 124.8893357515 -10.8613545013 0.0919650428 1
5.888312459 124.8893357515 -10.6620124241 0.4739012036 1
7.6660884619 124.8893357515 -10.5630967349 0.1984227705 1
9.4438644648 124.8893357515 -10.467852545 0.1889461783 1
11.2216404676 124.8893357515 -11.0119060189 0.3100856073 1
12.9994164705 124.8893357515 -10.6421241817 0.3229014882 1
14.7771924734 124.8893357515 0 -0 0
16.5549684763 124.8893357515 0 -0 0
18.3327444792 124.8893357515 0 -0 0
20.1105204821 124.8893357515 0 -0 0
21.8882964849 124.8893357515 0 -0 0
23.6660724878 124.8893357515 0 -0 0
25.4438484907 124.8893357515 0 -0 0
27.2216244936 124.8893357515 0 -0 0
28.9994004965 124.8893357515 0 -0 0
30.7771764994 124.8893357515 0 -0 0
32.5549525023 124.8893357515 0 -0 0
34.3327285051 124.8893357515 0 -0 0
36.110504508 124.8893357515 0 -0 0
37.8882805109 124.8893357515 -9.9956854231 0.4969511739 1
39.6660565138 124.8893357515 -10.1229621555 0.7228171127 1
41.4438325167 124.8893357515 -10.2940978393 0.5701090905 1
43.2216085196 124.8893357515 -9.9375929683 -0.0534801697 1
44.9993845224 124.8893357515 -9.8178239078 0.0298803336 1
46.7771605253 124.8893357515 -9.5499233117 0.295923701 1
48.5549365282 124.8893357515 -9.8204400658 0.320707753 1
50.3327125311 124.8893357515 -10.3032508125 0.422640544 1
52.110488534 124.8893357515 -9.6842022404 0.6492210219 1
53.8882645369 124.8893357515 0 -0 0
-125.6671117544 123.1115597486 0 -0 0
-123.8893357515 123.1115597486 -10.3151645699 0.1156393398 1
-122.1115597486 123.1115597486 -10.306892241 -0.1023752611 1
-120.3337837458 123.1115597486 -10.086092513 -0.1137463125 1
-118.5560077429 123.1115597486 -9.8488111326 0.0115443164 1
-116.77823174 123.1115597486 -9.8611129463 0.0857890769 1
-115.0004557371 123.1115597486 -10.2726330288 0.3478860121 1
-113.2226797342 123.1115597486 -10.3429585641 0.4110690208 1
-111.4449037313 123.1115597486 -10.0671493523 0.231835705 1
-109.6671277285 123.1115597486 -9.9861458255 0.0205297524 1
-107.8893517256 123.1115597486 -9.7916565997 0.224058828 1
-106.1115757227 123.1115597486 -9.7667207618 0.362282757 1
-104.3337997198 123.1115597486 -9.8807319836 0.1167619823 1
-102.5560237169 123.1115597486 -9.8016658743 0.1623321044 1
-100.778247714 123.1115597486 -9.6260525079 -0.1195299262 1
-99.0004717112 123.1115597486 -9.7996439722 -0.4694349765 1
-97.2226957083 123.1115597486 -10.070439955 -0.4332240273 1
-95.4449197054 123.1115597486 -10.3464281595 -0.2046889486 1
-93.6671437025 123.1115597486 -10.3705921807 -0.1317100248 1
-91.8893676996 123.1115597486 -10.3060445313 -0.374475743 1
-90.1115916967 123.1115597486 -10.0836095256 -0.3289772181 1
-88.3338156939 123.1115597486 -10.0906417927 -0.0562481135 1
-86.556039691 123.1115597486 -9.95004084 0.0891369573 1
-84.7782636881 123.1115597486 -10.3233853489 0.0735459729 1
-83.0004876852 123.1115597486 -10.8280503944 -0.2092153173 1
-81.2227116823 123.1115597486 -10.2574558755 -0.35287633 1
-79.4449356794 123.1115597486 -10.1547827705 -0.0931707379 1
-77.6671596766 123.1115597486 -10.1039531255 0.327768659 1
-75.8893836737 123.1115597486 -10.1734853649 0.3312783489 1
-74.1116076708 123.1115597486 -10.3432478163 0.0187842151 1
-72.3338316679 123.1115597486 0 -0 0
-70.556055665 123.1115597486 0 -0 0
-68.7782796621 123.1115597486 0 -0 0
-67.0005036592 123.1115597486 0 -0 0
-65.2227276564 123.1115597486 0 -0 0
-63.4449516535 123.1115597486 0 -0 0
-61.6671756506 123.1115597486 0 -0 0
-59.8893996477 123.1115597486 -10.3351430246 -0.3253042868 1
-58.1116236448 123.1115597486 -9.9653425722 -0.2478519762 1
-56.3338476419 123.1115597486 -10.3060158925 -0.2699955272 1
-54.5560716391 123.1115597486 -10.5769536376 -0.5925963076 1
-52.7782956362 123.1115597486 -10.097127058 -0.7906410454 1
-51.0005196333 123.1115597486 -10.4742361424 -0.2899195682 1
-49.2227436304 123.1115597486 -10.7275867759 0.0276665513 1
-47.4449676275 123.1115597486 -10.6166814363 0.1001271121 1
-45.6671916246 123.1115597486 -10.405690511 -0.0414933832 1
-43.8894156218 123.1115597486 -10.18367936 -0.0730662723 1
-42.1116396189 123.1115597486 -10.2925642294 -0.1467711907 1
-40.333863616 123.1115597486 -10.4964426989 -0.2151621724 1
-38.5560876131 123.1115597486 -10.27176384 -0.0650731721 1
-36.7783116102 123.1115597486 -10.5039646902 -0.0659538164 1
-35.0005356073 123.1115597486 -10.4712047212 0.0299147002 1
-33.2227596045 123.1115597486 -10.6441833143 -0.3423329411 1
-31.4449836016 123.1115597486 -10.4858377364 -0.8465340373 1
-29.6672075987 123.1115597486 -10.0592793991 -0.7669080387 1
-27.8894315958 123.1115597486 -9.5264709657 -0.0942833568 1
-26.1116555929 123.1115597486 0 -0 0
-24.33387959 123.1115597486 -10.2311052789 0.227836291 1
-22.5561035872 123.1115597486 -10.1192849284 0.0193569919 1
-20.7783275843 123.1115597486 -10.4610909149 0.326880855 1
-19.0005515814 123.1115597486 -11.0247247636 0.4018415865 1
-17.2227755785 123.1115597486 -11.2261589081 0.0863432385 1
-15.4449995756 123.1115597486 -11.0785743744 -0.1366487927 1
-13.6672235727 123.1115597486 -10.6560097232 0.0605711464 1
-11.8894475698 123.1115597486 -10.7152806664 -0.0651948871 1
-10.111671567 123.1115597486 -11.047996685 0.0292803499 1
-8.3338955641 123.1115597486 -11.0563449068 0.0989056656 1
-6.5561195612 123.1115597486 -10.7622655471 -0.1090567024 1
-4.7783435583 123.1115597486 -10.7236016813 0.0378891852 1
-3.0005675554 123.1115597486 -10.471332164 0.2069700322 1
-1.2227915525 123.1115597486 -9.9691773129 0.3648674123 1
0.5549844503 123.1115597486 -10.2252658195 0.3134979251 1
2.3327604532 123.1115597486 -10.817813441 0.1676689522 1
4.1105364561 123.1115597486 -11.1154554724 0.6473766806 1
5.888312459 123.1115597486 -10.7628268684 0.6075686931 1
7.6660884619 123.1115597486 -10.5380062472 0.3555984517 1
9.4438644648 123.1115597486 -10.579362164 0.4383489477 1
11.2216404676 123.1115597486 -11.0439242419 0.4788013091 1
12.9994164705 123.1115597486 -10.6792114794 0.4994470488 1
14.7771924734 123.1115597486 0 -0 0
16.5549684763 123.1115597486 0 -0 0
18.3327444792 123.1115597486 0 -0 0
20.1105204821 123.1115597486 0 -0 0
21.8882964849 123.1115597486 0 -0 0
23.6660724878 123.1115597486 0 -0 0
25.4438484907 123.1115597486 0 -0 0
27.2216244936 123.1115597486 0 -0 0
28.9994004965 123.1115597486 0 -0 0
30.7771764994 123.1115597486 0 -0 0
32.5549525023 123.1115597486 0 -0 0
34.3327285051 123.1115597486 0 -0 0
36.110504508 123.1115597486 0 -0 0
37.8882805109 123.1115597486 -10.0451446997 0.5798534558 1
39.6660565138 123.1115597486 -10.2015156295 0.293257425 1
41.4438325167 123.1115597486 -10.3864509383 0.6746165132 1
43.2216085196 123.1115597486 -10.2741236804 0.3613033086 1
44.9993845224 123.1115597486 -9.9521987766 -0.1276490373 1
46.7771605253 123.1115597486 -9.7408956879 0.151923318 1
48.5549365282 123.1115597486 -9.8720100249 0.7192258022 1
50.3327125311 123.1115597486 -10.7524696319 0.9030184213 1
52.110488534 123.1115597486 -9.9257422163 0.5355305552 1
53.8882645369 123.1115597486 0 -0 0
-125.6671117544 121.3337837458 0 -0 0
-123.8893357515 121.3337837458 -10.3584264015 0.2133794046 1
-122.1115597486 121.3337837458 -10.2880178136 -0.1317744622 1
-120.3337837458 121.3337837458 -10.0554403626 -0.1642408831 1
-118.5560077429 121.3337837458 -10.0341287699 0.0103414851 1
-116.77823174 121.3337837458 -9.7139522673 0.1493601418 1
-115.0004557371 121.3337837458 -9.6883162098 0.1378845587 1
-113.2226797342 121.3337837458 -9.9855501377 0.183227002 1
-111.4449037313 121.3337837458 -10.2212477902 0.1417866006 1
-109.6671277285 121.3337837458 -10.1294646041 -0.1002273481 1
-107.8893517256 121.3337837458 -10.0150037526 0.0129633709 1
-106.1115757227 121.3337837458 -10.0250216188 0.2228030149 1
-104.3337997198 121.3337837458 -10.0095723966 0.1299644875 1
-102.5560237169 121.3337837458 -9.7772655827 -0.0464722455 1
-100.778247714 121.3337837458 -9.8581746013 -0.1754200542 1
-99.0004717112 121.3337837458 -10.0444673911 -0.4245980087 1
-97.2226957083 121.3337837458 -9.8765750559 -0.1501634613 1
-95.4449197054 121.3337837458 -9.9905103847 0.0361465118 1
-93.6671437025 121.3337837458 -10.3622239117 -0.1168206919 1
-91.8893676996 121.3337837458 -10.1121509934 -0.4877767215 1
-90.1115916967 121.3337837458 -10.2659315402 -0.4434810278 1
-88.3338156939 121.3337837458 -10.2783006552 -0.1644256036 1
-86.556039691 121.3337837458 -10.090091927 0.1830594648 1
-84.7782636881 121.3337837458 -10.3404039795 0.0870563456 1
-83.0004876852 121.3337837458 -10.1261911847 -0.0967505929 1
-81.2227116823 121.3337837458 -9.9160393774 -0.1893700332 1
-79.4449356794 121.3337837458 -10.0924804062 -0.0639562573 1
-77.6671596766 121.3337837458 -10.2601235835 0.3322649569 1
-75.8893836737 121.3337837458 -10.3320672132 -0.0068675938 1
-74.1116076708 121.3337837458 -10.4950723304 -0.2696117668 1
-72.3338316679 121.3337837458 0 -0 0
-70.556055665 121.3337837458 0 -0 0
-68.7782796621 121.3337837458 0 -0 0
-67.0005036592 121.3337837458 0 -0 0
-65.2227276564 121.3337837458 0 -0 0
-63.4449516535 121.3337837458 0 -0 0
-61.6671756506 121.3337837458 0 -0 0
-59.8893996477 121.3337837458 -10.9084353222 -0.3777749374 1
-58.1116236448 121.3337837458 -10.9235594936 -0.3381803093 1
-56.3338476419 121.3337837458 -10.691738108 -0.436639209 1
-54.5560716391 121.3337837458 -10.6666218454 -0.3236017078 1
-52.7782956362 121.3337837458 -10.4120698126 -0.3811299775 1
-51.0005196333 121.3337837458 -10.310915998 -0.4049975867 1
-49.2227436304 121.3337837458 -10.4728428628 -0.2377553532 1
-47.4449676275 121.3337837458 -10.5828861733 -0.1527982346 1
-45.6671916246 121.3337837458 -10.4830082191 -0.1590701405 1
-43.8894156218 121.3337837458 -10.3016484694 -0.016514587 1
-42.1116396189 121.3337837458 -10.1251573226 0.0826703073 1
-40.333863616 121.3337837458 -10.3602693109 0.128741609 1
-38.5560876131 121.3337837458 -10.6193004582 0.1489978605 1
-36.7783116102 121.3337837458 -10.3998453237 0.0475533617 1
-35.0005356073 121.3337837458 -10.1579845928 0.140493557 1
-33.2227596045 121.3337837458 -10.4032089555 -0.0310359108 1
-31.4449836016 121.3337837458 -10.1862840625 -0.6446932213 1
-29.6672075987 121.3337837458 -10.1006066771 -0.8940530324 1
-27.8894315958 121.3337837458 -10.2124198678 -0.7745173785 1
-26.1116555929 121.3337837458 -9.7027988711 -0.0894620081 1
-24.33387959 121.3337837458 -10.3947762491 -0.0084341384 1
-22.5561035872 121.3337837458 -10.1237282445 -0.1403661142 1
-20.7783275843 121.3337837458 -10.4301767191 -0.0592136654 1
-19.0005515814 121.3337837458 -10.5874268613 0.1569752094 1
-17.2227755785 121.3337837458 -10.6780945647 0.0555163912 1
-15.4449995756 121.3337837458 -10.9113836908 -0.0892973348 1
-13.6672235727 121.3337837458 -10.3862032123 0.3018948991 1
-11.8894475698 121.3337837458 -11.3303842382 0.2068153825 1
-10.111671567 121.3337837458 -11.5381647496 -0.03717751 1
-8.3338955641 121.3337837458 -10.594668192 -0.0473457302 1
-6.5561195612 121.3337837458 -10.7555955613 -0.1924272293 1
-4.7783435583 121.3337837458 -10.8580266681 0.017108843 1
-3.0005675554 121.3337837458 -10.3514499801 0.1463516317 1
-1.2227915525 121.3337837458 -9.9179080617 0.0473285469 1
0.5549844503 121.3337837458 -9.842678125 -0.1007242319 1
2.3327604532 121.3337837458 -10.0968363738 0.08349081 1
4.1105364561 121.3337837458 -10.3820491486 0.4515041988 1
5.888312459 121.3337837458 -10.6889787558 0.5386020708 1
7.6660884619 121.3337837458 -10.6200121334 0.3687966611 1
9.4438644648 121.3337837458 -10.8433922209 0.2430091484 1
11.2216404676 121.3337837458 -10.990425457 0.3886662882 1
12.9994164705 121.3337837458 -10.6878389299 0.644157675 1
14.7771924734 121.3337837458 0 -0 0
16.5549684763 121.3337837458 0 -0 0
18.3327444792 121.3337837458 0 -0 0
20.1105204821 121.3337837458 0 -0 0
21.8882964849 121.3337837458 0 -0 0
23.6660724878 121.3337837458 0 -0 0
25.4438484907 121.3337837458 0 -0 0
27.2216244936 121.3337837458 0 -0 0
28.9994004965 121.3337837458 0 -0 0
30.7771764994 121.3337837458 0 -0 0
32.5549525023 121.3337837458 0 -0 0
34.3327285051 121.3337837458 0 -0 0
36.110504508 121.3337837458 0 -0 0
37.8882805109 121.3337837458 -10.0857388233 0.4405312273 1
39.6660565138 121.3337837458 -10.0051577194 0.6733291973 1
41.4438325167 121.3337837458 -10.1492311314 0.9145126197 1
43.2216085196 121.3337837458 -10.2668537109 0.4793382874 1
44.9993845224 121.3337837458 -10.2877901348 -0.1619569356 1
46.7771605253 121.3337837458 -11.0613967982 0.4387527554 1
48.5549365282 121.3337837458 -10.3844977694 0.6946393581 1
50.3327125311 121.3337837458 -9.9750411154 0.3840926655 1
52.110488534 121.3337837458 -10.0435251733 0.3401463656 1
53.8882645369 121.3337837458 0 -0 0
-125.6671117544 119.5560077429 0 -0 0
-123.8893357515 119.5560077429 -9.7918141134 -0.0535804056 1
-122.1115597486 119.5560077429 -10.0329202108 -0.1442423811 1
-120.3337837458 119.5560077429 -10.1078795105 -0.1140856827 1
-118.5560077429 119.5560077429 -10.3571777481 -0.0239148633 1
-116.77823174 119.5560077429 -10.1802899533 0.1694588797 1
-115.0004557371 119.5560077429 -9.8162917298 -0.0497743038 1
-113.2226797342 119.5560077429 -10.0749391168 0.0200471879 1
-111.4449037313 119.5560077429 -10.2373571377 0.0221349594 1
-109.6671277285 119.5560077429 -10.1389741309 0.0305963046 1
-107.8893517256 119.5560077429 -10.0628750055 -0.0107911149 1
-106.1115757227 119.5560077429 -10.0258492813 -0.0248427617 1
-104.3337997198 119.5560077429 -9.9093536402 -0.0698186278 1
-102.5560237169 119.5560077429 -9.875710163 -0.3222456587 1
-100.778247714 119.5560077429 -10.2082887152 -0.2644510478 1
-99.0004717112 119.5560077429 -10.4736619336 -0.1608944346 1
-97.2226957083 119.5560077429 -10.2231064509 -0.0199541117 1
-95.4449197054 119.5560077429 -10.0829551281 0.0171961914 1
-93.6671437025 119.5560077429 -10.2165495885 -0.1176469225 1
-91.8893676996 119.5560077429 -10.1257286674 -0.1818809765 1
-90.1115916967 119.5560077429 -10.1578714694 -0.1205437411 1
-88.3338156939 119.5560077429 -10.2451812687 -0.0512592276 1
-86.556039691 119.5560077429 -10.4087491391 0.0622866129 1
-84.7782636881 119.5560077429 -10.0812654365 -0.0401631091 1
-83.0004876852 119.5560077429 -9.7296320322 -0.0338926351 1
-81.2227116823 119.5560077429 -10.0304100165 -0.0583401808 1
-79.4449356794 119.5560077429 -10.5334712869 -0.1066954301 1
-77.6671596766 119.5560077429 -10.6119374125 -0.0168152949 1
-75.8893836737 119.5560077429 -10.4970627297 -0.1246748938 1
-74.1116076708 119.5560077429 -10.2504422236 -0.1904425577 1
-72.3338316679 119.5560077429 0 -0 0
-70.556055665 119.5560077429 0 -0 0
-68.7782796621 119.5560077429 0 -0 0
-67.0005036592 119.5560077429 0 -0 0
-65.2227276564 119.5560077429 0 -0 0
-63.4449516535 119.5560077429 0 -0 0
-61.6671756506 119.5560077429 -9.4188934593 0.3965949511 1
-59.8893996477 119.5560077429 -11.3679913309 -0.0529560789 1
-58.1116236448 119.5560077429 -11.4352997644 -0.0357870944 1
-56.3338476419 119.5560077429 -11.275954691 -0.1804533303 1
-54.5560716391 119.5560077429 -10.6988290848 0.1688316891 1
-52.7782956362 119.5560077429 -10.4984101872 0.0318335025 1
-51.0005196333 119.5560077429 -10.1355231507 -0.3906681431 1
-49.2227436304 119.5560077429 -10.0967518892 -0.3170605968 1
-47.4449676275 119.5560077429 -10.5534096473 -0.2104195805 1
-45.6671916246 119.5560077429 -10.7445108983 -0.4003580946 1
-43.8894156218 119.5560077429 -10.419342646 -0.1668369939 1
-42.1116396189 119.5560077429 -10.3882709366 0.2257227446 1
-40.333863616 119.5560077429 -10.5072295179 0.207988143 1
-38.5560876131 119.5560077429 -10.5604820088 0.1266810445 1
-36.7783116102 119.5560077429 -10.3592368807 0.121583331 1
-35.0005356073 119.5560077429 -10.4111104114 0.0874286505 1
-33.2227596045 119.5560077429 -10.3187114902 -0.1909823998 1
-31.4449836016 119.5560077429 -9.8434313265 -0.4920682517 1
-29.6672075987 119.5560077429 -10.1479438156 -0.5912560099 1
-27.8894315958 119.5560077429 0 -0 0
-26.1116555929 119.5560077429 -10.6492667084 -0.8770830879 1
-24.33387959 119.5560077429 -10.4601429693 0.574268882 1
-22.5561035872 119.5560077429 -10.3283384363 -0.1885781692 1
-20.7783275843 119.5560077429 -10.2241861352 0.1449096661 1
-19.0005515814 119.5560077429 -9.9833592664 0.3106784313 1
-17.2227755785 119.5560077429 -10.6192145417 0.0120211531 1
-15.4449995756 119.5560077429 -10.9313134595 -0.4137009301 1
-13.6672235727 119.5560077429 -10.2819678586 -0.2373630011 1
-11.8894475698 119.5560077429 -10.9801856398 0.2228030149 1
-10.111671567 119.5560077429 -11.2817540561 0.0905373966 1
-8.3338955641 119.5560077429 -10.3860528584 -0.0611381955 1
-6.5561195612 119.5560077429 -10.5204649578 0.1707533553 1
-4.7783435583 119.5560077429 -10.70472439 0.2090606675 1
-3.0005675554 119.5560077429 -10.730248756 -0.1265407142 1
-1.2227915525 119.5560077429 -10.3070540505 -0.1714306638 1
0.5549844503 119.5560077429 -9.8321920138 0.2492939418 1
2.3327604532 119.5560077429 -10.155142188 0.0667628636 1
4.1105364561 119.5560077429 -10.1386061218 0.2733477035 1
5.888312459 119.5560077429 -9.9787068869 0.4952371393 1
7.6660884619 119.5560077429 -10.459605991 0.5056831562 1
9.4438644648 119.5560077429 -10.7170534105 0.3163789924 1
11.2216404676 119.5560077429 -10.6260477689 0.0529761261 1
12.9994164705 119.5560077429 -10.3926684305 0.3130139287 1
14.7771924734 119.5560077429 0 -0 0
16.5549684763 119.5560077429 0 -0 0
18.3327444792 119.5560077429 0 -0 0
20.1105204821 119.5560077429 0 -0 0
21.8882964849 119.5560077429 0 -0 0
23.6660724878 119.5560077429 0 -0 0
25.4438484907 119.5560077429 0 -0 0
27.2216244936 119.5560077429 0 -0 0
28.9994004965 119.5560077429 0 -0 0
30.7771764994 119.5560077429 0 -0 0
32.5549525023 119.5560077429 0 -0 0
34.3327285051 119.5560077429 0 -0 0
36.110504508 119.5560077429 -10.1889532024 0.8689439295 1
37.8882805109 119.5560077429 -10.3761595712 0.6285251642 1
39.6660565138 119.5560077429 -9.8253745379 0.5289407581 1
41.4438325167 119.5560077429 -9.6442997448 0.4358573687 1
43.2216085196 119.5560077429 -9.8417788654 0.1775994699 1
44.9993845224 119.5560077429 -10.6896975906 0.4809477902 1
46.7771605253 119.5560077429 -11.3191664047 0.6673064493 1
48.5549365282 119.5560077429 -10.4057048304 0.5602272588 1
50.3327125311 119.5560077429 -9.591093076 0.6060708818 1
52.110488534 119.5560077429 -9.788638066 0.8598539618 1
53.8882645369 119.5560077429 0 -0 0
-125.6671117544 117.77823174 0 -0 0
-123.8893357515 117.77823174 -9.4654330061 -0.2428888653 1
-122.1115597486 117.77823174 -10.3961809842 -0.1007800777 1
-120.3337837458 117.77823174 -10.5177900901 0.2071576166 1
-118.5560077429 117.77823174 -10.35120655 0.0418112743 1
-116.77823174 117.77823174 -10.3886389457 -0.0726996951 1
-115.0004557371 117.77823174 -10.085130248 0.0592222571 1
-113.2226797342 117.77823174 -10.1904538776 -0.1070219128 1
-111.4449037313 117.77823174 -10.3005057797 -0.142369401 1
-109.6671277285 117.77823174 -9.9575556716 0.0671867185 1
-107.8893517256 117.77823174 -9.8293324256 -0.0798966356 1
-106.1115757227 117.77823174 -9.9732712351 -0.277259769 1
-104.3337997198 117.77823174 -9.9518579744 -0.267731627 1
-102.5560237169 117.77823174 -9.9975770185 -0.310685591 1
-100.778247714 117.77823174 -10.0143880175 -0.1374363608 1
-99.0004717112 117.77823174 -10.238509851 0.2334480717 1
-97.2226957083 117.77823174 -10.5459578211 0.055347422 1
-95.4449197054 117.77823174 -10.4372075543 -0.5189715779 1
-93.6671437025 117.77823174 -10.3750712953 -0.6343717834 1
-91.8893676996 117.77823174 -10.3625203237 -0.0277997219 1
-90.1115916967 117.77823174 -10.3148796135 0.3864682573 1
-88.3338156939 117.77823174 -10.3140748621 0.3065043204 1
-86.556039691 117.77823174 -10.5161691318 0.0526596669 1
-84.7782636881 117.77823174 -10.1193622533 -0.158143674 1
-83.0004876852 117.77823174 -9.9081465131 -0.232180803 1
-81.2227116823 117.77823174 -10.1229635874 -0.2738359957 1
-79.4449356794 117.77823174 -10.5257817584 -0.3205516714 1
-77.6671596766 117.77823174 -10.5641706914 -0.3554466659 1
-75.8893836737 117.77823174 -10.1526405853 -0.1987263422 1
-74.1116076708 117.77823174 -10.1411578424 -0.1149262327 1
-72.3338316679 117.77823174 0 -0 0
-70.556055665 117.77823174 0 -0 0
-68.7782796621 117.77823174 0 -0 0
-67.0005036592 117.77823174 0 -0 0
-65.2227276564 117.77823174 0 -0 0
-63.4449516535 117.77823174 0 -0 0
-61.6671756506 117.77823174 0 -0 0
-59.8893996477 117.77823174 -10.9420974146 0.2061323462 1
-58.1116236448 117.77823174 -10.7528247535 0.1935742149 1
-56.3338476419 117.77823174 -11.0499298067 0.1181710132 1
-54.5560716391 117.77823174 -10.6168647249 0.3375874853 1
-52.7782956362 117.77823174 -10.3266516086 0.1219312929 1
-51.0005196333 117.77823174 -10.2369146676 -0.0100579606 1
-49.2227436304 117.77823174 -10.0986391887 0.1966042041 1
-47.4449676275 117.77823174 -10.5384200785 -0.1525061184 1
-45.6671916246 117.77823174 -10.6375720381 -0.4968724171 1
-43.8894156218 117.77823174 -10.6687625987 -0.1333066401 1
-42.1116396189 117.77823174 -10.6000981161 0.210037252 1
-40.333863616 117.77823174 -10.3130710707 0.1101922324 1
-38.5560876131 117.77823174 -10.2285650138 0.1856856464 1
-36.7783116102 117.77823174 -10.5078237738 0.0429639877 1
-35.0005356073 117.77823174 -10.6821226175 -0.1337577019 1
-33.2227596045 117.77823174 -10.5748658662 -0.0542405309 1
-31.4449836016 117.77823174 -10.0916999978 -0.2363377306 1
-29.6672075987 117.77823174 -10.2438366752 -0.2991369788 1
-27.8894315958 117.77823174 -10.915153994 -0.3177078346 1
-26.1116555929 117.77823174 0 -0 0
-24.33387959 117.77823174 -10.3435012701 1.1022688542 1
-22.5561035872 117.77823174 -10.8568238368 0.5257274803 1
-20.7783275843 117.77823174 -10.1945993497 0.2472118981 1
-19.0005515814 117.77823174 -9.7436894068 -0.0175498811 1
-17.2227755785 117.77823174 -10.9052091569 -0.3319327463 1
-15.4449995756 117.77823174 -10.8017513477 -0.4049489007 1
-13.6672235727 117.77823174 -10.3519540237 -0.4399842255 1
-11.8894475698 117.77823174 -10.519718916 -0.1830981272 1
-10.111671567 117.77823174 -10.5454351623 -0.0564185146 1
-8.3338955641 117.77823174 -10.2976232805 0.4825759082 1
-6.5561195612 117.77823174 -10.1215459649 0.437429641 1
-4.7783435583 117.77823174 -10.116803373 0.2156576243 1
-3.0005675554 117.77823174 -10.6215929974 -0.107462951 1