TITLE = "B00008"
VARIABLES = "x", "y", "Vx", "Vy", "isValid"
ZONE T="Frame 0", I=102, J=78, F=POINT
-125.6671117544 126.6671117544 0 -0 0
-123.8893357515 126.6671117544 0 -0 0
-122.1115597486 126.6671117544 0 -0 0
-120.3337837458 126.6671117544 0 -0 0
-118.5560077429 126.6671117544 0 -0 0
-116.77823174 126.6671117544 0 -0 0
-115.0004557371 126.6671117544 0 -0 0
-113.2226797342 126.6671117544 0 -0 0
-111.4449037313 126.6671117544 0 -0 0
-109.6671277285 126.6671117544 0 -0 0
-107.8893517256 126.6671117544 0 -0 0
-106.1115757227 126.6671117544 0 -0 0
-104.3337997198 126.6671117544 0 -0 0
-102.5560237169 126.6671117544 0 -0 0
-100.778247714 126.6671117544 0 -0 0
-99.0004717112 126.6671117544 0 -0 0
-97.2226957083 126.6671117544 0 -0 0
-95.4449197054 126.6671117544 0 -0 0
-93.6671437025 126.6671117544 0 -0 0
-91.8893676996 126.6671117544 0 -0 0
-90.1115916967 126.6671117544 0 -0 0
-88.3338156939 126.6671117544 0 -0 0
-86.556039691 126.6671117544 0 -0 0
-84.7782636881 126.6671117544 0 -0 0
-83.0004876852 126.6671117544 0 -0 0
-81.2227116823 126.6671117544 0 -0 0
-79.4449356794 126.6671117544 0 -0 0
-77.6671596766 126.6671117544 0 -0 0
-75.8893836737 126.6671117544 0 -0 0
-74.1116076708 126.6671117544 0 -0 0
-72.3338316679 126.6671117544 0 -0 0
-70.556055665 126.6671117544 0 -0 0
-68.7782796621 126.6671117544 0 -0 0
-67.0005036592 126.6671117544 0 -0 0
-65.2227276564 126.6671117544 0 -0 0
-63.4449516535 126.6671117544 0 -0 0
-61.6671756506 126.6671117544 0 -0 0
-59.8893996477 126.6671117544 0 -0 0
-58.1116236448 126.6671117544 0 -0 0
-56.3338476419 126.6671117544 0 -0 0
-54.5560716391 126.6671117544 0 -0 0
-52.7782956362 126.6671117544 0 -0 0
-51.0005196333 126.6671117544 0 -0 0
-49.2227436304 126.6671117544 0 -0 0
-47.4449676275 126.6671117544 0 -0 0
-45.6671916246 126.6671117544 0 -0 0
-43.8894156218 126.6671117544 0 -0 0
-42.1116396189 126.6671117544 0 -0 0
-40.333863616 126.6671117544 0 -0 0
-38.5560876131 126.6671117544 0 -0 0
-36.7783116102 126.6671117544 0 -0 0
-35.0005356073 126.6671117544 0 -0 0
-33.2227596045 126.6671117544 0 -0 0
-31.4449836016 126.6671117544 0 -0 0
-29.6672075987 126.6671117544 0 -0 0
-27.8894315958 126.6671117544 0 -0 0
-26.1116555929 126.6671117544 0 -0 0
-24.33387959 126.6671117544 0 -0 0
-22.5561035872 126.6671117544 0 -0 0
-20.7783275843 126.6671117544 0 -0 0
-19.0005515814 126.6671117544 0 -0 0
-17.2227755785 126.6671117544 0 -0 0
-15.4449995756 126.6671117544 0 -0 0
-13.6672235727 126.6671117544 0 -0 0
-11.8894475698 126.6671117544 0 -0 0
-10.111671567 126.6671117544 0 -0 0
-8.3338955641 126.6671117544 0 -0 0
-6.5561195612 126.6671117544 0 -0 0
-4.7783435583 126.6671117544 0 -0 0
-3.0005675554 126.6671117544 0 -0 0
-1.2227915525 126.6671117544 0 -0 0
0.5549844503 126.6671117544 0 -0 0
2.3327604532 126.6671117544 0 -0 0
4.1105364561 126.6671117544 0 -0 0
5.888312459 126.6671117544 0 -0 0
7.6660884619 126.6671117544 0 -0 0
9.4438644648 126.6671117544 0 -0 0
11.2216404676 126.6671117544 0 -0 0
12.9994164705 126.6671117544 0 -0 0
14.7771924734 126.6671117544 0 -0 0
16.5549684763 126.6671117544 0 -0 0
18.3327444792 126.6671117544 0 -0 0
20.1105204821 126.6671117544 0 -0 0
21.8882964849 126.6671117544 0 -0 0
23.6660724878 126.6671117544 0 -0 0
25.4438484907 126.6671117544 0 -0 0
27.2216244936 126.6671117544 0 -0 0
28.9994004965 126.6671117544 0 -0 0
30.7771764994 126.6671117544 0 -0 0
32.5549525023 126.6671117544 0 -0 0
34.3327285051 126.6671117544 0 -0 0
36.110504508 126.6671117544 0 -0 0
37.8882805109 126.6671117544 0 -0 0
39.6660565138 126.6671117544 0 -0 0
41.4438325167 126.6671117544 0 -0 0
43.2216085196 126.6671117544 0 -0 0
44.9993845224 126.6671117544 0 -0 0
46.7771605253 126.6671117544 0 -0 0
48.5549365282 126.6671117544 0 -0 0
50.3327125311 126.6671117544 0 -0 0
52.110488534 126.6671117544 0 -0 0
53.8882645369 126.6671117544 0 -0 0
-125.6671117544 124.8893357515 0 -0 0
-123.8893357515 124.8893357515 -9.9839950487 -0.0746213613 1
-122.1115597486 124.8893357515 -10.3825961505 0.1654737851 1
-120.3337837458 124.8893357515 -10.2065489056 0.2614511294 1
-118.5560077429 124.8893357515 -10.0509526564 0.1633072569 1
-116.77823174 124.8893357515 -10.2517567464 0.0706591778 1
-115.0004557371 124.8893357515 -10.2201151241 -0.0157442022 1
-113.2226797342 124.8893357515 -9.9412974022 0.0511618556 1
-111.4449037313 124.8893357515 -9.9271483834 0.1924687556 1
-109.6671277285 124.8893357515 -9.6360603505 0.2430206039 1
-107.8893517256 124.8893357515 -9.4420737364 0.0190620119 1
-106.1115757227 124.8893357515 -10.0554403626 -0.2917725011 1
-104.3337997198 124.8893357515 -10.2781875318 -0.1353127909 1
-102.5560237169 124.8893357515 -10.0189831194 0.0217998849 1
-100.778247714 124.8893357515 -9.9607732453 -0.0428207935 1
-99.0004717112 124.8893357515 -10.0550451466 -0.1100891326 1
-97.2226957083 124.8893357515 -10.2842532381 0.1586333982 1
-95.4449197054 124.8893357515 -10.1870830861 0.0146487666 1
-93.6671437025 124.8893357515 -9.9621350221 -0.3425649157 1
-91.8893676996 124.8893357515 -10.2616772405 -0.3872028435 1
-90.1115916967 124.8893357515 -10.5239760796 -0.1434089909 1
-88.3338156939 124.8893357515 -10.4600413014 0.0592551917 1
-86.556039691 124.8893357515 -10.2876240295 -0.1882359351 1
-84.7782636881 124.8893357515 -10.0816291498 -0.3997595429 1
-83.0004876852 124.8893357515 -10.26879972 -0.2184670945 1
-81.2227116823 124.8893357515 -10.286945289 0.0650345096 1
-79.4449356794 124.8893357515 -10.3047400322 0.2085752392 1
-77.6671596766 124.8893357515 -10.0862829613 0.1508636809 1
-75.8893836737 124.8893357515 -9.7828444287 -0.2577252163 1
-74.1116076708 124.8893357515 -9.7976950991 -0.4132756434 1
-72.3338316679 124.8893357515 0 -0 0
-70.556055665 124.8893357515 0 -0 0
-68.7782796621 124.8893357515 0 -0 0
-67.0005036592 124.8893357515 0 -0 0
-65.2227276564 124.8893357515 0 -0 0
-63.4449516535 124.8893357515 0 -0 0
-61.6671756506 124.8893357515 0 -0 0
-59.8893996477 124.8893357515 -9.7811132108 -0.2679578738 1
-58.1116236448 124.8893357515 -9.870353268 -0.4519996508 1
-56.3338476419 124.8893357515 -9.931279536 -0.1495162235 1
-54.5560716391 124.8893357515 -10.1007699184 -0.0027607842 1
-52.7782956362 124.8893357515 -10.5641864428 0.0001689692 1
-51.0005196333 124.8893357515 -10.106533485 0.0215492951 1
-49.2227436304 124.8893357515 -9.6733867825 -0.0316989 1
-47.4449676275 124.8893357515 -10.0939295315 -0.0363698948 1
-45.6671916246 124.8893357515 -10.5718473324 0.3877512773 1
-43.8894156218 124.8893357515 -10.8678841568 0.4489395907 1
-42.1116396189 124.8893357515 -10.4502296348 0.4498989919 1
-40.333863616 124.8893357515 -10.1549531716 -0.0792264868 1
-38.5560876131 124.8893357515 -10.1559898976 -0.5337678346 1
-36.7783116102 124.8893357515 -10.4268990039 -0.0866353546 1
-35.0005356073 124.8893357515 -10.0659608405 -0.3503303371 1
-33.2227596045 124.8893357515 -10.3383548705 -0.2285980841 1
-31.4449836016 124.8893357515 -10.4331293835 0.0908424002 1
-29.6672075987 124.8893357515 -9.7862109243 -0.1106662052 1
-27.8894315958 124.8893357515 -9.847986334 -0.0689465752 1
-26.1116555929 124.8893357515 -10.0577472212 -0.1122198623 1
-24.33387959 124.8893357515 -10.6680852901 -0.1352726965 1
-22.5561035872 124.8893357515 -11.0482401151 0.1065450762 1
-20.7783275843 124.8893357515 -10.4824855602 0.8078372368 1
-19.0005515814 124.8893357515 -10.7183779569 0.7115448653 1
-17.2227755785 124.8893357515 -10.8103759343 0.1557394434 1
-15.4449995756 124.8893357515 -10.8122933046 -0.247512606 1
-13.6672235727 124.8893357515 -10.6599332443 -0.1349519415 1
-11.8894475698 124.8893357515 -10.7584121912 -0.1855109495 1
-10.111671567 124.8893357515 -10.473011832 -0.3846711701 1
-8.3338955641 124.8893357515 -10.1026958804 0.0307781613 1
-6.5561195612 124.8893357515 -10.0002432945 -0.0237917163 1
-4.7783435583 124.8893357515 -10.6378856334 -0.275729023 1
-3.0005675554 124.8893357515 -10.2174789189 0.0161021877 1
-1.2227915525 124.8893357515 -9.8430647493 0.4070309443 1
0.5549844503 124.8893357515 -10.4734901006 0.5955317887 1
2.3327604532 124.8893357515 -10.3504290055 0.0483022674 1
4.1105364561 124.8893357515 -9.8347895566 -0.0796217028 1
5.888312459 124.8893357515 -9.6074301022 -0.0478025197 1
7.6660884619 124.8893357515 -9.744349532 0.0851504308 1
9.4438644648 124.8893357515 -10.5096666832 0.362751002 1
11.2216404676 124.8893357515 -10.8188788059 0.5287402862 1
12.9994164705 124.8893357515 -11.3859664988 0.666351344 1
14.7771924734 124.8893357515 0 -0 0
16.5549684763 124.8893357515 0 -0 0
18.3327444792 124.8893357515 0 -0 0
20.1105204821 124.8893357515 0 -0 0
21.8882964849 124.8893357515 0 -0 0
23.6660724878 124.8893357515 0 -0 0
25.4438484907 124.8893357515 0 -0 0
27.2216244936 124.8893357515 0 -0 0
28.9994004965 124.8893357515 0 -0 0
30.7771764994 124.8893357515 0 -0 0
32.5549525023 124.8893357515 0 -0 0
34.3327285051 124.8893357515 0 -0 0
36.110504508 124.8893357515 0 -0 0
37.8882805109 124.8893357515 -10.1840373455 0.6062427148 1
39.6660565138 124.8893357515 -9.8481280962 0.1222405924 1
41.4438325167 124.8893357515 0 -0 0
43.2216085196 124.8893357515 -10.4274001836 0.5108839695 1
44.9993845224 124.8893357515 -10.2910793055 0.4561336673 1
46.7771605253 124.8893357515 -9.6460323946 0.3431677632 1
48.5549365282 124.8893357515 -9.5697356611 0.3268464884 1
50.3327125311 124.8893357515 -10.1767716718 0.2815856658 1
52.110488534 124.8893357515 -10.3938698298 0.0727727242 1
53.8882645369 124.8893357515 0 -0 0
-125.6671117544 123.1115597486 0 -0 0
-123.8893357515 123.1115597486 -9.3362603826 0.0860296432 1
-122.1115597486 123.1115597486 -9.848060795 -0.0975954387 1
-120.3337837458 123.1115597486 -10.2518326393 -0.0570385455 1
-118.5560077429 123.1115597486 -10.2841959604 0.0965386655 1
-116.77823174 123.1115597486 -10.2080639003 0.2675998883 1
-115.0004557371 123.1115597486 -10.2089431127 0.1577269789 1
-113.2226797342 123.1115597486 -10.1052862635 -0.029055535 1
-111.4449037313 123.1115597486 -9.9126041485 0.1155433997 1
-109.6671277285 123.1115597486 -9.9631359496 0.1297869267 1
-107.8893517256 123.1115597486 -9.7898566487 0.0983973262 1
-106.1115757227 123.1115597486 -9.8232538318 -0.0457906412 1
-104.3337997198 123.1115597486 -10.360043064 -0.0690682902 1
-102.5560237169 123.1115597486 -10.2082214139 -0.1557523309 1
-100.778247714 123.1115597486 -10.1577769612 -0.0629223952 1
-99.0004717112 123.1115597486 -10.0775867775 0.2611174869 1
-97.2226957083 123.1115597486 -10.3051008816 0.1308723387 1
-95.4449197054 123.1115597486 -10.3660829954 -0.0657776875 1
-93.6671437025 123.1115597486 -10.1274455659 -0.147850875 1
-91.8893676996 123.1115597486 -10.3221123525 -0.4774381003 1
-90.1115916967 123.1115597486 -10.4219358929 -0.2491249727 1
-88.3338156939 123.1115597486 -10.401517832 0.1543132292 1
-86.556039691 123.1115597486 -9.7192447249 0.0372720182 1
-84.7782636881 123.1115597486 -9.6421632873 -0.2916550819 1
-83.0004876852 123.1115597486 -9.9543767604 -0.194310233 1
-81.2227116823 123.1115597486 -10.2183323563 -0.0878925997 1
-79.4449356794 123.1115597486 -10.258999509 -0.1589455616 1
-77.6671596766 123.1115597486 -10.0789700335 -0.2014928541 1
-75.8893836737 123.1115597486 -9.9723777032 -0.1927537121 1
-74.1116076708 123.1115597486 -9.8236247048 -0.2952549841 1
-72.3338316679 123.1115597486 0 -0 0
-70.556055665 123.1115597486 0 -0 0
-68.7782796621 123.1115597486 0 -0 0
-67.0005036592 123.1115597486 0 -0 0
-65.2227276564 123.1115597486 0 -0 0
-63.4449516535 123.1115597486 0 -0 0
-61.6671756506 123.1115597486 0 -0 0
-59.8893996477 123.1115597486 -10.5530301827 -0.1340698652 1
-58.1116236448 123.1115597486 -9.8734548543 -0.4003351836 1
-56.3338476419 123.1115597486 -9.93448995 -0.4356139385 1
-54.5560716391 123.1115597486 -10.5864202061 -0.1226544236 1
-52.7782956362 123.1115597486 -9.9107426239 0.0201030337 1
-51.0005196333 123.1115597486 -9.6129631261 -0.2973756902 1
-49.2227436304 123.1115597486 -9.8183494305 -0.4123047867 1
-47.4449676275 123.1115597486 -10.4228165372 -0.0757225247 1
-45.6671916246 123.1115597486 -10.4034108593 0.2180733105 1
-43.8894156218 123.1115597486 -10.0669216735 0.6164195266 1
-42.1116396189 123.1115597486 -10.3385381591 0.4545356201 1
-40.333863616 123.1115597486 -10.2431923013 -0.1448309093 1
-38.5560876131 123.1115597486 -9.8818918566 -0.7567126117 1
-36.7783116102 123.1115597486 -9.9986237681 -0.7386543912 1
-35.0005356073 123.1115597486 -10.3097919236 -0.1515982672 1
-33.2227596045 123.1115597486 -10.6606649667 0.1631268322 1
-31.4449836016 123.1115597486 -10.6349458565 0.1177528862 1
-29.6672075987 123.1115597486 -10.3623098282 -0.2868609401 1
-27.8894315958 123.1115597486 -10.2982118086 -0.0705489183 1
-26.1116555929 123.1115597486 -10.5254395243 0.1411536823 1
-24.33387959 123.1115597486 -10.5404920985 0.2467551086 1
-22.5561035872 123.1115597486 -10.863755868 0.1345710449 1
-20.7783275843 123.1115597486 -11.5257111501 0.5777270219 1
-19.0005515814 123.1115597486 -11.2222038843 0.5552641478 1
-17.2227755785 123.1115597486 -10.8370415582 0.1693557799 1
-15.4449995756 123.1115597486 -10.8735360319 -0.1631654946 1
-13.6672235727 123.1115597486 -11.1577221043 -0.2519100998 1
-11.8894475698 123.1115597486 -10.773524907 -0.2267193762 1
-10.111671567 123.1115597486 -10.1515924038 0.0433849786 1
-8.3338955641 123.1115597486 -9.3823245246 -0.1357896275 1
-6.5561195612 123.1115597486 -9.7696820179 -0.463820332 1
-4.7783435583 123.1115597486 -10.6014999873 -0.2529525536 1
-3.0005675554 123.1115597486 -10.2877471765 -0.1276089429 1
-1.2227915525 123.1115597486 -10.3288768465 0.0123419081 1
0.5549844503 123.1115597486 -10.5457115271 -0.1989296779 1
2.3327604532 123.1115597486 -10.2542239825 -0.0662760033 1
4.1105364561 123.1115597486 -9.6275245443 -0.0695379672 1
5.888312459 123.1115597486 -9.7315852011 -0.2472118981 1
7.6660884619 123.1115597486 -10.0520137254 0.2805360523 1
9.4438644648 123.1115597486 -10.2395394173 0.7744171426 1
11.2216404676 123.1115597486 -10.6722207386 0.8970901814 1
12.9994164705 123.1115597486 -10.909403315 0.8710789551 1
14.7771924734 123.1115597486 0 -0 0
16.5549684763 123.1115597486 0 -0 0
18.3327444792 123.1115597486 0 -0 0
20.1105204821 123.1115597486 0 -0 0
21.8882964849 123.1115597486 0 -0 0
23.6660724878 123.1115597486 0 -0 0
25.4438484907 123.1115597486 0 -0 0
27.2216244936 123.1115597486 0 -0 0
28.9994004965 123.1115597486 0 -0 0
30.7771764994 123.1115597486 0 -0 0
32.5549525023 123.1115597486 0 -0 0
34.3327285051 123.1115597486 0 -0 0
36.110504508 123.1115597486 0 -0 0
37.8882805109 123.1115597486 -10.0465308195 0.2012809267 1
39.6660565138 123.1115597486 -9.9670666304 -0.0533641824 1
41.4438325167 123.1115597486 -9.9712794037 1.0730228709 1
43.2216085196 123.1115597486 -10.4217969945 0.7896888039 1
44.9993845224 123.1115597486 -10.475577872 0.8849859757 1
46.7771605253 123.1115597486 -10.0936603264 0.3926026968 1
48.5549365282 123.1115597486 -10.2258428921 0.1089550345 1
50.3327125311 123.1115597486 -10.0091156071 0.0538753857 1
52.110488534 123.1115597486 -10.3581042146 0.1733193953 1
53.8882645369 123.1115597486 0 -0 0
-125.6671117544 121.3337837458 0 -0 0
-123.8893357515 121.3337837458 -9.9896669709 -0.113313866 1
-122.1115597486 121.3337837458 -10.0380150605 -0.0146473347 1
-120.3337837458 121.3337837458 -10.5573618072 -0.0657275696 1
-118.5560077429 121.3337837458 -10.4721755778 -0.0764470873 1
-116.77823174 121.3337837458 -10.0616077368 0.1292470846 1
-115.0004557371 121.3337837458 -10.1272565495 0.141036263 1
-113.2226797342 121.3337837458 -10.1725803776 -0.0012515173 1
-111.4449037313 121.3337837458 -10.0992348766 0.0621405549 1
-109.6671277285 121.3337837458 -10.2980729103 -0.0364329002 1
-107.8893517256 121.3337837458 -10.0170528616 -0.0752972379 1
-106.1115757227 121.3337837458 -9.836852985 -0.1118547171 1
-104.3337997198 121.3337837458 -10.4326697301 -0.1337920685 1
-102.5560237169 121.3337837458 -10.3811813918 -0.1517414614 1
-100.778247714 121.3337837458 -9.9989115884 0.0872124273 1
-99.0004717112 121.3337837458 -9.850529463 0.2271231839 1
-97.2226957083 121.3337837458 -9.9787426854 0.0502010225 1
-95.4449197054 121.3337837458 -10.2535266267 -0.0528672985 1
-93.6671437025 121.3337837458 -10.2758749454 -0.0545240554 1
-91.8893676996 121.3337837458 -10.2507515231 -0.4543351482 1
-90.1115916967 121.3337837458 -10.2659787943 -0.5737634065 1
-88.3338156939 121.3337837458 -10.307930399 -0.187670318 1
-86.556039691 121.3337837458 -10.0856271318 -0.0287147328 1
-84.7782636881 121.3337837458 -9.7033301216 -0.0851103364 1
-83.0004876852 121.3337837458 -9.7650425258 -0.2967341801 1
-81.2227116823 121.3337837458 -10.0822205418 -0.4136980663 1
-79.4449356794 121.3337837458 -10.1499198955 -0.5294691447 1
-77.6671596766 121.3337837458 -9.544410335 -0.6167245302 1
-75.8893836737 121.3337837458 -10.0160977563 0.1386535115 1
-74.1116076708 121.3337837458 -10.1241277563 -0.0699790053 1
-72.3338316679 121.3337837458 0 -0 0
-70.556055665 121.3337837458 0 -0 0
-68.7782796621 121.3337837458 0 -0 0
-67.0005036592 121.3337837458 0 -0 0
-65.2227276564 121.3337837458 0 -0 0
-63.4449516535 121.3337837458 0 -0 0
-61.6671756506 121.3337837458 0 -0 0
-59.8893996477 121.3337837458 -10.6892007068 -0.0778804613 1
-58.1116236448 121.3337837458 -10.0541945731 -0.2919887244 1
-56.3338476419 121.3337837458 -9.8565164125 -0.0910858304 1
-54.5560716391 121.3337837458 -9.9389361299 0.2732030773 1
-52.7782956362 121.3337837458 -9.6814457521 0.4289797512 1
-51.0005196333 121.3337837458 -9.9388903077 0.0941258432 1
-49.2227436304 121.3337837458 -10.4207330616 -0.0955921518 1
-47.4449676275 121.3337837458 -10.6138304398 -0.1669658687 1
-45.6671916246 121.3337837458 -10.2645568759 -0.1932949862 1
-43.8894156218 121.3337837458 -10.3590249533 -0.0155594817 1
-42.1116396189 121.3337837458 -10.2781860998 -0.1200053309 1
-40.333863616 121.3337837458 -10.1838698083 -0.4793569026 1
-38.5560876131 121.3337837458 -9.5020019408 -0.7440499486 1
-36.7783116102 121.3337837458 0 -0 0
-35.0005356073 121.3337837458 -10.7650606979 -0.9751038133 1
-33.2227596045 121.3337837458 -10.9351081058 0.1155906538 1
-31.4449836016 121.3337837458 -10.7120831399 0.1193838681 1
-29.6672075987 121.3337837458 -10.4001803982 0.2561744231 1
-27.8894315958 121.3337837458 -10.3333688485 0.3267963704 1
-26.1116555929 121.3337837458 -10.4391063094 0.2424134605 1
-24.33387959 121.3337837458 0 -0 0
-22.5561035872 121.3337837458 -10.4124750521 -0.2583395194 1
-20.7783275843 121.3337837458 -10.8179007895 0.0987681992 1
-19.0005515814 121.3337837458 -10.9894989905 0.6098698239 1
-17.2227755785 121.3337837458 -10.4566375753 0.5767046153 1
-15.4449995756 121.3337837458 -10.5565613516 0.1311830701 1
-13.6672235727 121.3337837458 -11.0388508714 -0.3353422002 1
-11.8894475698 121.3337837458 -10.8694993874 -0.1696206891 1
-10.111671567 121.3337837458 -10.4651476065 0.0474130314 1
-8.3338955641 121.3337837458 -10.8665825215 0.0027793994 1
-6.5561195612 121.3337837458 0 -0 0
-4.7783435583 121.3337837458 -9.9453111356 -0.7653343345 1
-3.0005675554 121.3337837458 -10.5326364648 -0.3069725654 1
-1.2227915525 121.3337837458 -10.7279848557 -0.3667346646 1
0.5549844503 121.3337837458 -10.3558875683 -0.3927587785 1
2.3327604532 121.3337837458 -10.1152611714 -0.0228280193 1
4.1105364561 121.3337837458 -9.8292407813 0.2589767336 1
5.888312459 121.3337837458 -10.3635541858 0.1419441142 1
7.6660884619 121.3337837458 -10.7225735469 0.2227342817 1
9.4438644648 121.3337837458 -10.2917752294 0.3462736454 1
11.2216404676 121.3337837458 -10.4380022821 0.6762532229 1
12.9994164705 121.3337837458 -10.33752864 0.7586829639 1
14.7771924734 121.3337837458 0 -0 0
16.5549684763 121.3337837458 0 -0 0
18.3327444792 121.3337837458 0 -0 0
20.1105204821 121.3337837458 0 -0 0
21.8882964849 121.3337837458 0 -0 0
23.6660724878 121.3337837458 0 -0 0
25.4438484907 121.3337837458 0 -0 0
27.2216244936 121.3337837458 0 -0 0
28.9994004965 121.3337837458 0 -0 0
30.7771764994 121.3337837458 0 -0 0
32.5549525023 121.3337837458 0 -0 0
34.3327285051 121.3337837458 0 -0 0
36.110504508 121.3337837458 0 -0 0
37.8882805109 121.3337837458 -9.9656046176 0.3068479865 1
39.6660565138 121.3337837458 -9.9046010247 -0.2222130548 1
41.4438325167 121.3337837458 -10.0458678304 -0.558988629 1
43.2216085196 121.3337837458 0 -0 0
44.9993845224 121.3337837458 -10.1917354657 0.8794815907 1
46.7771605253 121.3337837458 -10.2330312409 0.3641528732 1
48.5549365282 121.3337837458 -10.4205168384 0.6282717105 1
50.3327125311 121.3337837458 -10.3658352694 0.6516410039 1
52.110488534 121.3337837458 -9.6455870606 0.1959311914 1
53.8882645369 121.3337837458 0 -0 0
-125.6671117544 119.5560077429 0 -0 0
-123.8893357515 119.5560077429 -10.2058186152 -0.0192209574 1
-122.1115597486 119.5560077429 -10.2304523134 0.1074930218 1
-120.3337837458 119.5560077429 -10.5086929626 -0.0989156892 1
-118.5560077429 119.5560077429 -10.3300052168 -0.3177278817 1
-116.77823174 119.5560077429 -9.943402357 -0.1764854191 1
-115.0004557371 119.5560077429 -10.0170542935 0.0685885897 1
-113.2226797342 119.5560077429 -10.3639150352 0.1142775629 1
-111.4449037313 119.5560077429 -10.445338121 -0.0645261702 1
-109.6671277285 119.5560077429 -10.4267371944 -0.1486226917 1
-107.8893517256 119.5560077429 -10.3377405674 0.0104789515 1
-106.1115757227 119.5560077429 -9.9333358047 -0.109239991 1
-104.3337997198 119.5560077429 -9.9567222814 -0.2943714758 1
-102.5560237169 119.5560077429 -10.3794315586 -0.1400095606 1
-100.778247714 119.5560077429 -10.2836303433 0.2420225404 1
-99.0004717112 119.5560077429 -10.052172671 0.1336359868 1
-97.2226957083 119.5560077429 -10.3322633893 -0.0672812266 1
-95.4449197054 119.5560077429 -10.5353786337 0.0575612044 1
-93.6671437025 119.5560077429 -10.5713189458 0.0452780059 1
-91.8893676996 119.5560077429 -10.5817449155 -0.1329615421 1
-90.1115916967 119.5560077429 -10.5228434134 -0.2701129465 1
-88.3338156939 119.5560077429 -10.6061495029 -0.3664568679 1
-86.556039691 119.5560077429 -10.4913120507 -0.0425673397 1
-84.7782636881 119.5560077429 -9.9922688095 0.1212525524 1
-83.0004876852 119.5560077429 -10.0137679866 -0.1927680315 1
-81.2227116823 119.5560077429 -10.28410718 -0.4121859355 1
-79.4449356794 119.5560077429 -10.4270636772 -0.606881361 1
-77.6671596766 119.5560077429 -9.7554470825 -0.0064909931 1
-75.8893836737 119.5560077429 -10.2695357382 -0.0047010656 1
-74.1116076708 119.5560077429 -10.3164418622 -0.2765838924 1
-72.3338316679 119.5560077429 0 -0 0
-70.556055665 119.5560077429 0 -0 0
-68.7782796621 119.5560077429 0 -0 0
-67.0005036592 119.5560077429 0 -0 0
-65.2227276564 119.5560077429 0 -0 0
-63.4449516535 119.5560077429 0 -0 0
-61.6671756506 119.5560077429 0 -0 0
-59.8893996477 119.5560077429 -10.7677685002 0.0115844107 1
-58.1116236448 119.5560077429 -9.9655573635 -0.0628794369 1
-56.3338476419 119.5560077429 -9.9369514583 0.1983926997 1
-54.5560716391 119.5560077429 -9.9698102312 0.2045686655 1
-52.7782956362 119.5560077429 -10.1729627061 0.068085978 1
-51.0005196333 119.5560077429 -10.4146301249 -0.0302827093 1
-49.2227436304 119.5560077429 -10.7811571579 -0.0301094444 1
-47.4449676275 119.5560077429 -10.7298005582 -0.2587304396 1
-45.6671916246 119.5560077429 -10.39327271 -0.0930662062 1
-43.8894156218 119.5560077429 -10.4020734255 0.0578275456 1
-42.1116396189 119.5560077429 -10.5185547472 -0.2903119203 1
-40.333863616 119.5560077429 -10.2804356807 -0.4659038076 1
-38.5560876131 119.5560077429 -9.9707137866 -0.3317222509 1
-36.7783116102 119.5560077429 -10.4550667349 -0.172906996 1
-35.0005356073 119.5560077429 -10.9458519666 -0.2914846808 1
-33.2227596045 119.5560077429 -10.8933798841 -0.1657601735 1
-31.4449836016 119.5560077429 -10.580449008 0.1118704684 1
-29.6672075987 119.5560077429 -10.4982426499 0.5435222235 1
-27.8894315958 119.5560077429 -10.6681769344 0.5610792643 1
-26.1116555929 119.5560077429 -10.3474591578 0.1419197712 1
-24.33387959 119.5560077429 -10.1433143471 -0.0731035028 1
-22.5561035872 119.5560077429 -9.9705347939 -0.3811944149 1
-20.7783275843 119.5560077429 -10.2653716509 -0.0695479908 1
-19.0005515814 119.5560077429 -10.3453914335 0.3534204679 1
-17.2227755785 119.5560077429 -10.3994529716 0.2342728703 1
-15.4449995756 119.5560077429 -10.3704504184 -0.0006787405 1
-13.6672235727 119.5560077429 -10.3476109436 0.022021836 1
-11.8894475698 119.5560077429 -10.624169061 -0.0192109338 1
-10.111671567 119.5560077429 -10.8065712644 -0.1070763266 1
-8.3338955641 119.5560077429 -11.0731559058 0.2507674101 1
-6.5561195612 119.5560077429 -9.6087274417 -0.8157902426 1
-4.7783435583 119.5560077429 -10.2985168123 -0.2874007822 1
-3.0005675554 119.5560077429 -11.0581649051 -0.1080328639 1
-1.2227915525 119.5560077429 -10.9687802218 -0.006690033 1
0.5549844503 119.5560077429 -10.3615179643 0.1807640618 1
2.3327604532 119.5560077429 -10.4185980361 0.1898382782 1
4.1105364561 119.5560077429 -10.2343572192 0.4700077533 1
5.888312459 119.5560077429 -10.4495050722 0.6108621597 1
7.6660884619 119.5560077429 0 -0 0
9.4438644648 119.5560077429 -10.4666697609 -0.025749181 1
11.2216404676 119.5560077429 -10.3635513219 0.6246403056 1
12.9994164705 119.5560077429 -10.0158385748 0.8725739025 1
14.7771924734 119.5560077429 0 -0 0
16.5549684763 119.5560077429 0 -0 0
18.3327444792 119.5560077429 0 -0 0
20.1105204821 119.5560077429 0 -0 0
21.8882964849 119.5560077429 0 -0 0
23.6660724878 119.5560077429 0 -0 0
25.4438484907 119.5560077429 0 -0 0
27.2216244936 119.5560077429 0 -0 0
28.9994004965 119.5560077429 0 -0 0
30.7771764994 119.5560077429 0 -0 0
32.5549525023 119.5560077429 0 -0 0
34.3327285051 119.5560077429 0 -0 0
36.110504508 119.5560077429 -9.9150298582 0.2128180833 1
37.8882805109 119.5560077429 -10.2872130622 0.6813767114 1
39.6660565138 119.5560077429 -9.6730860747 0.3914514154 1
41.4438325167 119.5560077429 -9.5127586891 -0.3274521998 1
43.2216085196 119.5560077429 -10.1173933331 -0.0567521571 1
44.9993845224 119.5560077429 -10.4984416899 0.5287345585 1
46.7771605253 119.5560077429 -9.943746023 0.7689657394 1
48.5549365282 119.5560077429 -9.969989224 1.5827627188 1
50.3327125311 119.5560077429 -10.1101176358 1.1126117713 1
52.110488534 119.5560077429 0 -0 0
53.8882645369 119.5560077429 0 -0 0
-125.6671117544 117.77823174 0 -0 0
-123.8893357515 117.77823174 -10.0602402322 0.1525691239 1
-122.1115597486 117.77823174 -10.1076861983 -0.0119023019 1
-120.3337837458 117.77823174 -10.1543918504 -0.3638163668 1
-118.5560077429 117.77823174 -10.0848667706 -0.288763991 1
-116.77823174 117.77823174 -9.8768886512 -0.0995256965 1
-115.0004557371 117.77823174 -10.1046605048 -0.0479729208 1
-113.2226797342 117.77823174 -10.3729649086 -0.0230313551 1
-111.4449037313 117.77823174 -10.0291584992 0.1427689128 1
-109.6671277285 117.77823174 -10.2771035517 0.0619773135 1
-107.8893517256 117.77823174 -10.3020222063 0.0590661754 1
-106.1115757227 117.77823174 -9.9668647266 -0.1258949084 1
-104.3337997198 117.77823174 -9.7707488147 -0.4519481009 1
-102.5560237169 117.77823174 -9.9961608279 -0.2673464346 1
-100.778247714 117.77823174 -10.0714580658 0.3696429388 1
-99.0004717112 117.77823174 -10.0680844104 0.3694023726 1
-97.2226957083 117.77823174 -10.4336964325 -0.0244747526 1
-95.4449197054 117.77823174 -10.7895354505 -0.0567593168 1
-93.6671437025 117.77823174 -10.4618297969 0.1858417281 1
-91.8893676996 117.77823174 -10.3628596939 0.1243627304 1
-90.1115916967 117.77823174 -10.2163061584 0.1275187306 1
-88.3338156939 117.77823174 -10.2204788374 0.118372917 1
-86.556039691 117.77823174 -10.4916084627 -0.0323232267 1
-84.7782636881 117.77823174 -10.4125266021 -0.0327442176 1
-83.0004876852 117.77823174 -10.0615705063 -0.3714872801 1
-81.2227116823 117.77823174 -10.072216995 -0.7737412659 1
-79.4449356794 117.77823174 -10.2980399756 -0.4034138588 1
-77.6671596766 117.77823174 -10.1280011594 0.1299730792 1
-75.8893836737 117.77823174 -10.2226954836 0.0424713996 1
-74.1116076708 117.77823174 -10.5376511256 -0.4375714032 1
-72.3338316679 117.77823174 0 -0 0
-70.556055665 117.77823174 0 -0 0
-68.7782796621 117.77823174 0 -0 0
-67.0005036592 117.77823174 0 -0 0
-65.2227276564 117.77823174 0 -0 0
-63.4449516535 117.77823174 0 -0 0
-61.6671756506 117.77823174 -9.250584429 -0.1776653393 1
-59.8893996477 117.77823174 -10.6047547914 -0.0952642371 1
-58.1116236448 117.77823174 -10.1485423673 0.0941859848 1
-56.3338476419 117.77823174 -10.1729813214 0.1854994939 1
-54.5560716391 117.77823174 -10.5512517107 0.2001167578 1
-52.7782956362 117.77823174 -10.5917613498 -0.2041462426 1
-51.0005196333 117.77823174 -10.4718390715 -0.4901050592 1
-49.2227436304 117.77823174 -10.5325505482 -0.0223740937 1
-47.4449676275 117.77823174 -11.0511970753 -0.0944566218 1
-45.6671916246 117.77823174 -10.4914566768 0.180337343 1
-43.8894156218 117.77823174 -10.1022018604 0.1984986634 1
-42.1116396189 117.77823174 -10.4046466253 -0.3222499546 1
-40.333863616 117.77823174 -10.5018196411 -0.3195135134 1
-38.5560876131 117.77823174 -10.5498183368 -0.088970852 1
-36.7783116102 117.77823174 -10.7291690718 0.0147275234 1
-35.0005356073 117.77823174 -10.7222728391 0.010762476 1
-33.2227596045 117.77823174 -10.3841311923 0.3956112069 1
-31.4449836016 117.77823174 -10.1749301944 0.8453297741 1
-29.6672075987 117.77823174 0 -0 0
-27.8894315958 117.77823174 -10.4995041908 0.9669517675 1
-26.1116555929 117.77823174 -9.9522789654 -0.3104607761 1
-24.33387959 117.77823174 -9.8900338788 -0.359738196 1
-22.5561035872 117.77823174 -10.2355872574 -0.2319044382 1
-20.7783275843 117.77823174 -11.1946561842 -0.1142861546 1
-19.0005515814 117.77823174 -10.530779236 0.0952499177 1
-17.2227755785 117.77823174 -10.3511865028 0.0085386701 1
-15.4449995756 117.77823174 -10.5604190034 0.032043998 1
-13.6672235727 117.77823174 -10.5493615473 0.2086611557 1
-11.8894475698 117.77823174 -10.731756591 0.0956981155 1
-10.111671567 117.77823174 -10.8258552273 -0.0515126814 1
-8.3338955641 117.77823174 -10.6148986685 0.4073746104 1
-6.5561195612 117.77823174 -9.3915376394 0.2814668146 1
-4.7783435583 117.77823174 -9.6707634648 0.6771453228 1
-3.0005675554 117.77823174 -10.5422247484 0.0447238444 1
-1.2227915525 117.77823174 -10.8842856204 0.2715592079 1