TITLE = "B00015"
VARIABLES = "x", "y", "Vx", "Vy", "isValid"
ZONE T="Frame 0", I=102, J=78, F=POINT
-125.6671117544 126.6671117544 0 -0 0
-123.8893357515 126.6671117544 0 -0 0
-122.1115597486 126.6671117544 0 -0 0
-120.3337837458 126.6671117544 0 -0 0
-118.5560077429 126.6671117544 0 -0 0
-116.77823174 126.6671117544 0 -0 0
-115.0004557371 126.6671117544 0 -0 0
-113.2226797342 126.6671117544 0 -0 0
-111.4449037313 126.6671117544 0 -0 0
-109.6671277285 126.6671117544 0 -0 0
-107.8893517256 126.6671117544 0 -0 0
-106.1115757227 126.6671117544 0 -0 0
-104.3337997198 126.6671117544 0 -0 0
-102.5560237169 126.6671117544 0 -0 0
-100.778247714 126.6671117544 0 -0 0
-99.0004717112 126.6671117544 0 -0 0
-97.2226957083 126.6671117544 0 -0 0
-95.4449197054 126.6671117544 0 -0 0
-93.6671437025 126.6671117544 0 -0 0
-91.8893676996 126.6671117544 0 -0 0
-90.1115916967 126.6671117544 0 -0 0
-88.3338156939 126.6671117544 0 -0 0
-86.556039691 126.6671117544 0 -0 0
-84.7782636881 126.6671117544 0 -0 0
-83.0004876852 126.6671117544 0 -0 0
-81.2227116823 126.6671117544 0 -0 0
-79.4449356794 126.6671117544 0 -0 0
-77.6671596766 126.6671117544 0 -0 0
-75.8893836737 126.6671117544 0 -0 0
-74.1116076708 126.6671117544 0 -0 0
-72.3338316679 126.6671117544 0 -0 0
-70.556055665 126.6671117544 0 -0 0
-68.7782796621 126.6671117544 0 -0 0
-67.0005036592 126.6671117544 0 -0 0
-65.2227276564 126.6671117544 0 -0 0
-63.4449516535 126.6671117544 0 -0 0
-61.6671756506 126.6671117544 0 -0 0
-59.8893996477 126.6671117544 0 -0 0
-58.1116236448 126.6671117544 0 -0 0
-56.3338476419 126.6671117544 0 -0 0
-54.5560716391 126.6671117544 0 -0 0
-52.7782956362 126.6671117544 0 -0 0
-51.0005196333 126.6671117544 0 -0 0
-49.2227436304 126.6671117544 0 -0 0
-47.4449676275 126.6671117544 0 -0 0
-45.6671916246 126.6671117544 0 -0 0
-43.8894156218 126.6671117544 0 -0 0
-42.1116396189 126.6671117544 0 -0 0
-40.333863616 126.6671117544 0 -0 0
-38.5560876131 126.6671117544 0 -0 0
-36.7783116102 126.6671117544 0 -0 0
-35.0005356073 126.6671117544 0 -0 0
-33.2227596045 126.6671117544 0 -0 0
-31.4449836016 126.6671117544 0 -0 0
-29.6672075987 126.6671117544 0 -0 0
-27.8894315958 126.6671117544 0 -0 0
-26.1116555929 126.6671117544 0 -0 0
-24.33387959 126.6671117544 0 -0 0
-22.5561035872 126.6671117544 0 -0 0
-20.7783275843 126.6671117544 0 -0 0
-19.0005515814 126.6671117544 0 -0 0
-17.2227755785 126.6671117544 0 -0 0
-15.4449995756 126.6671117544 0 -0 0
-13.6672235727 126.6671117544 0 -0 0
-11.8894475698 126.6671117544 0 -0 0
-10.111671567 126.6671117544 0 -0 0
-8.3338955641 126.6671117544 0 -0 0
-6.5561195612 126.6671117544 0 -0 0
-4.7783435583 126.6671117544 0 -0 0
-3.0005675554 126.6671117544 0 -0 0
-1.2227915525 126.6671117544 0 -0 0
0.5549844503 126.6671117544 0 -0 0
2.3327604532 126.6671117544 0 -0 0
4.1105364561 126.6671117544 0 -0 0
5.888312459 126.6671117544 0 -0 0
7.6660884619 126.6671117544 0 -0 0
9.4438644648 126.6671117544 0 -0 0
11.2216404676 126.6671117544 0 -0 0
12.9994164705 126.6671117544 0 -0 0
14.7771924734 126.6671117544 0 -0 0
16.5549684763 126.6671117544 0 -0 0
18.3327444792 126.6671117544 0 -0 0
20.1105204821 126.6671117544 0 -0 0
21.8882964849 126.6671117544 0 -0 0
23.6660724878 126.6671117544 0 -0 0
25.4438484907 126.6671117544 0 -0 0
27.2216244936 126.6671117544 0 -0 0
28.9994004965 126.6671117544 0 -0 0
30.7771764994 126.6671117544 0 -0 0
32.5549525023 126.6671117544 0 -0 0
34.3327285051 126.6671117544 0 -0 0
36.110504508 126.6671117544 0 -0 0
37.8882805109 126.6671117544 0 -0 0
39.6660565138 126.6671117544 0 -0 0
41.4438325167 126.6671117544 0 -0 0
43.2216085196 126.6671117544 0 -0 0
44.9993845224 126.6671117544 0 -0 0
46.7771605253 126.6671117544 0 -0 0
48.5549365282 126.6671117544 0 -0 0
50.3327125311 126.6671117544 0 -0 0
52.110488534 126.6671117544 0 -0 0
53.8882645369 126.6671117544 0 -0 0
-125.6671117544 124.8893357515 0 -0 0
-123.8893357515 124.8893357515 -9.5040825526 0.0822507483 1
-122.1115597486 124.8893357515 -9.877659036 -0.1596243021 1
-120.3337837458 124.8893357515 -10.2126074522 -0.0966761319 1
-118.5560077429 124.8893357515 -10.054690025 -0.024859945 1
-116.77823174 124.8893357515 -9.9098061338 0.1549776503 1
-115.0004557371 124.8893357515 -10.3424015386 0.1779660471 1
-113.2226797342 124.8893357515 -10.4680129225 0.0502153419 1
-111.4449037313 124.8893357515 -9.8902615575 0.0700033484 1
-109.6671277285 124.8893357515 -9.5378706559 -0.0260770957 1
-107.8893517256 124.8893357515 -10.1915106508 0.1011022646 1
-106.1115757227 124.8893357515 -10.2147238625 -0.0546543621 1
-104.3337997198 124.8893357515 -9.7042036062 0.0415406373 1
-102.5560237169 124.8893357515 -10.268085181 -0.0393096717 1
-100.778247714 124.8893357515 -10.6089947717 -0.0528229083 1
-99.0004717112 124.8893357515 -10.0755333727 0.1537046539 1
-97.2226957083 124.8893357515 -10.2020411522 -0.0186424528 1
-95.4449197054 124.8893357515 -10.6407638368 -0.1673410375 1
-93.6671437025 124.8893357515 -10.3368284204 -0.2540007352 1
-91.8893676996 124.8893357515 -9.5902740052 -0.3824087017 1
-90.1115916967 124.8893357515 -9.8150974902 -0.3950112232 1
-88.3338156939 124.8893357515 -9.9988929732 0.0885312459 1
-86.556039691 124.8893357515 -9.7753496443 0.0361250327 1
-84.7782636881 124.8893357515 -10.0858877453 -0.2000079302 1
-83.0004876852 124.8893357515 -10.7156157408 -0.3229100798 1
-81.2227116823 124.8893357515 -10.2932128991 -0.3293867535 1
-79.4449356794 124.8893357515 -9.8816684736 -0.1144050058 1
-77.6671596766 124.8893357515 -10.0585147421 -0.06122268 1
-75.8893836737 124.8893357515 -10.0171488017 -0.0721999474 1
-74.1116076708 124.8893357515 -10.0143393315 -0.3567683483 1
-72.3338316679 124.8893357515 0 -0 0
-70.556055665 124.8893357515 0 -0 0
-68.7782796621 124.8893357515 0 -0 0
-67.0005036592 124.8893357515 0 -0 0
-65.2227276564 124.8893357515 0 -0 0
-63.4449516535 124.8893357515 0 -0 0
-61.6671756506 124.8893357515 0 -0 0
-59.8893996477 124.8893357515 0 -0 0
-58.1116236448 124.8893357515 -10.0784488066 -0.0852463709 1
-56.3338476419 124.8893357515 -9.8053044389 0.105536989 1
-54.5560716391 124.8893357515 -9.8982288828 0.1611793911 1
-52.7782956362 124.8893357515 -9.8885117244 -0.0339871433 1
-51.0005196333 124.8893357515 -9.9597837734 -0.1414658456 1
-49.2227436304 124.8893357515 -10.1577669377 -0.0078799768 1
-47.4449676275 124.8893357515 -10.4047039029 0.0796532055 1
-45.6671916246 124.8893357515 -10.588744248 -0.1490909367 1
-43.8894156218 124.8893357515 -10.4127958072 -0.1721480668 1
-42.1116396189 124.8893357515 -10.5937975713 -0.0338310616 1
-40.333863616 124.8893357515 -10.7464597714 -0.0645032592 1
-38.5560876131 124.8893357515 -10.7194161148 0.0973033225 1
-36.7783116102 124.8893357515 -10.9554860723 0.0988025658 1
-35.0005356073 124.8893357515 -10.9317845684 -0.5396230454 1
-33.2227596045 124.8893357515 -10.8765130393 0.4949665023 1
-31.4449836016 124.8893357515 -10.3873688131 0.7557460509 1
-29.6672075987 124.8893357515 0 -0 0
-27.8894315958 124.8893357515 -11.2810180379 -0.4345285265 1
-26.1116555929 124.8893357515 -10.8474045224 -0.4857104292 1
-24.33387959 124.8893357515 -10.5102022295 -0.4007003288 1
-22.5561035872 124.8893357515 -10.4251792415 -0.0402590492 1
-20.7783275843 124.8893357515 -10.2153152545 0.4302126533 1
-19.0005515814 124.8893357515 0 -0 0
-17.2227755785 124.8893357515 -9.456055218 -0.1243097486 1
-15.4449995756 124.8893357515 -10.8112694661 0.6216232038 1
-13.6672235727 124.8893357515 -10.8116661141 0.4045522527 1
-11.8894475698 124.8893357515 -10.7818903122 0.0990846584 1
-10.111671567 124.8893357515 -10.8486689272 0.2706141262 1
-8.3338955641 124.8893357515 -10.5366000802 0.381042629 1
-6.5561195612 124.8893357515 -10.3710418105 0.3060145962 1
-4.7783435583 124.8893357515 -10.624763317 -0.0093448535 1
-3.0005675554 124.8893357515 -10.7527016065 -0.1116313341 1
-1.2227915525 124.8893357515 -10.4915898474 0.8530379179 1
0.5549844503 124.8893357515 -10.5223766003 0.2515377949 1
2.3327604532 124.8893357515 -9.842530635 -0.1342660413 1
4.1105364561 124.8893357515 -10.4170529707 0.1372215695 1
5.888312459 124.8893357515 -10.678973777 0.5768478095 1
7.6660884619 124.8893357515 -10.7762685079 1.1177596027 1
9.4438644648 124.8893357515 -10.8856831958 1.1244295885 1
11.2216404676 124.8893357515 -10.8517676497 0.7944213722 1
12.9994164705 124.8893357515 0 -0 0
14.7771924734 124.8893357515 0 -0 0
16.5549684763 124.8893357515 0 -0 0
18.3327444792 124.8893357515 0 -0 0
20.1105204821 124.8893357515 0 -0 0
21.8882964849 124.8893357515 0 -0 0
23.6660724878 124.8893357515 0 -0 0
25.4438484907 124.8893357515 0 -0 0
27.2216244936 124.8893357515 0 -0 0
28.9994004965 124.8893357515 0 -0 0
30.7771764994 124.8893357515 0 -0 0
32.5549525023 124.8893357515 0 -0 0
34.3327285051 124.8893357515 0 -0 0
36.110504508 124.8893357515 0 -0 0
37.8882805109 124.8893357515 -9.5961263521 0.5748459546 1
39.6660565138 124.8893357515 -10.2546736122 1.1293196705 1
41.4438325167 124.8893357515 -10.4570227676 0.7650350586 1
43.2216085196 124.8893357515 -10.9072682895 0.2909577261 1
44.9993845224 124.8893357515 -11.4498797978 0.1135959585 1
46.7771605253 124.8893357515 -10.2121019767 -0.1640404112 1
48.5549365282 124.8893357515 -9.9873529526 -0.1203704761 1
50.3327125311 124.8893357515 -10.0878280267 0.1724702537 1
52.110488534 124.8893357515 -10.5505457633 0.5672552301 1
53.8882645369 124.8893357515 0 -0 0
-125.6671117544 123.1115597486 0 -0 0
-123.8893357515 123.1115597486 -10.1371068785 0.0028925228 1
-122.1115597486 123.1115597486 -9.9939971635 -0.1837868913 1
-120.3337837458 123.1115597486 -10.000625623 0.0880157467 1
-118.5560077429 123.1115597486 -10.0511187617 0.1855582036 1
-116.77823174 123.1115597486 -10.0355907827 0.2736612988 1
-115.0004557371 123.1115597486 -10.0456344238 0.4699733867 1
-113.2226797342 123.1115597486 -10.0508209177 -0.0146072403 1
-111.4449037313 123.1115597486 -9.8376534405 -0.0153189155 1
-109.6671277285 123.1115597486 -9.6261183772 0.3729578845 1
-107.8893517256 123.1115597486 -10.1102422147 0.2443881085 1
-106.1115757227 123.1115597486 -10.1514248666 -0.1069402922 1
-104.3337997198 123.1115597486 -10.0031816395 -0.1694445603 1
-102.5560237169 123.1115597486 -10.3732427053 -0.222479396 1
-100.778247714 123.1115597486 -10.5050372147 -0.2296161949 1
-99.0004717112 123.1115597486 -9.8802995371 0.0799338661 1
-97.2226957083 123.1115597486 -9.5103759376 0.1968075399 1
-95.4449197054 123.1115597486 -10.8729847342 -0.084848291 1
-93.6671437025 123.1115597486 -10.5815401478 -0.0311576259 1
-91.8893676996 123.1115597486 -9.5446723804 0.0426274813 1
-90.1115916967 123.1115597486 -9.5049660608 -0.0239191591 1
-88.3338156939 123.1115597486 -9.8067707475 0.0916829502 1
-86.556039691 123.1115597486 -9.827422215 0.2937972671 1
-84.7782636881 123.1115597486 -9.861390743 0.142988 1
-83.0004876852 123.1115597486 -10.2861863597 -0.2952435285 1
-81.2227116823 123.1115597486 -10.4562881814 -0.4237946893 1
-79.4449356794 123.1115597486 -10.2027843301 -0.3141967128 1
-77.6671596766 123.1115597486 -10.0812439574 -0.185028385 1
-75.8893836737 123.1115597486 -10.0645016916 0.1464103413 1
-74.1116076708 123.1115597486 -9.9275493271 -0.1596285979 1
-72.3338316679 123.1115597486 0 -0 0
-70.556055665 123.1115597486 0 -0 0
-68.7782796621 123.1115597486 0 -0 0
-67.0005036592 123.1115597486 0 -0 0
-65.2227276564 123.1115597486 0 -0 0
-63.4449516535 123.1115597486 0 -0 0
-61.6671756506 123.1115597486 0 -0 0
-59.8893996477 123.1115597486 -10.5800996142 -0.0076007481 1
-58.1116236448 123.1115597486 -9.9816137291 -0.1414443665 1
-56.3338476419 123.1115597486 -10.3246511856 0.2139450217 1
-54.5560716391 123.1115597486 -10.2390625806 0.1759341214 1
-52.7782956362 123.1115597486 -9.4800817728 -0.2365697052 1
-51.0005196333 123.1115597486 -9.9443245276 -0.4373924105 1
-49.2227436304 123.1115597486 -10.4712405197 0.0477924961 1
-47.4449676275 123.1115597486 -10.6589251572 0.1576224472 1
-45.6671916246 123.1115597486 -10.4696524961 -0.0189488884 1
-43.8894156218 123.1115597486 -10.4419658976 0.1440290218 1
-42.1116396189 123.1115597486 -10.7050379853 0.2317583801 1
-40.333863616 123.1115597486 -10.6850795777 0.1692068579 1
-38.5560876131 123.1115597486 -10.2733275206 0.423380858 1
-36.7783116102 123.1115597486 -10.6671645514 -0.0765831218 1
-35.0005356073 123.1115597486 -11.2225933726 -0.4280590125 1
-33.2227596045 123.1115597486 -11.0171884529 0.1764825552 1
-31.4449836016 123.1115597486 -10.6761972415 0.3299466428 1
-29.6672075987 123.1115597486 -10.8650789824 -0.1914492129 1
-27.8894315958 123.1115597486 -10.8183246443 -0.3913354281 1
-26.1116555929 123.1115597486 -10.6429117498 -0.1576825887 1
-24.33387959 123.1115597486 -10.1690506406 -0.0743091979 1
-22.5561035872 123.1115597486 -10.4686988227 -0.1743933518 1
-20.7783275843 123.1115597486 -10.3364303405 0.0758843341 1
-19.0005515814 123.1115597486 -10.252358162 0.1035451577 1
-17.2227755785 123.1115597486 -10.3515101217 -0.2757376147 1
-15.4449995756 123.1115597486 -10.7119471054 0.1818279947 1
-13.6672235727 123.1115597486 -11.2135635463 0.898039559 1
-11.8894475698 123.1115597486 -11.3052321771 0.2124114118 1
-10.111671567 123.1115597486 -11.0035420457 0.1332679777 1
-8.3338955641 123.1115597486 -10.6497421131 0.2108649145 1
-6.5561195612 123.1115597486 -10.7179899006 0.6791013555 1
-4.7783435583 123.1115597486 -10.5696020474 0.9927467706 1
-3.0005675554 123.1115597486 -10.3353936145 0.5309855713 1
-1.2227915525 123.1115597486 -9.7413796843 0.1752840197 1
0.5549844503 123.1115597486 -10.7550184887 0.1864674867 1
2.3327604532 123.1115597486 -10.391667503 0.2284692094 1
4.1105364561 123.1115597486 -10.4937334646 0.1800366352 1
5.888312459 123.1115597486 -10.72714001 0.6706314186 1
7.6660884619 123.1115597486 -10.6776435029 1.0222304563 1
9.4438644648 123.1115597486 -10.4192825044 0.3807447851 1
11.2216404676 123.1115597486 -10.1624823226 0.261534182 1
12.9994164705 123.1115597486 0 -0 0
14.7771924734 123.1115597486 0 -0 0
16.5549684763 123.1115597486 0 -0 0
18.3327444792 123.1115597486 0 -0 0
20.1105204821 123.1115597486 0 -0 0
21.8882964849 123.1115597486 0 -0 0
23.6660724878 123.1115597486 0 -0 0
25.4438484907 123.1115597486 0 -0 0
27.2216244936 123.1115597486 0 -0 0
28.9994004965 123.1115597486 0 -0 0
30.7771764994 123.1115597486 0 -0 0
32.5549525023 123.1115597486 0 -0 0
34.3327285051 123.1115597486 0 -0 0
36.110504508 123.1115597486 0 -0 0
37.8882805109 123.1115597486 -10.1380161617 0.8007104615 1
39.6660565138 123.1115597486 -10.5317014066 0.8171104932 1
41.4438325167 123.1115597486 -10.251149603 0.7091220195 1
43.2216085196 123.1115597486 -10.7184767609 0.3354567556 1
44.9993845224 123.1115597486 -10.3440124734 -0.1764453247 1
46.7771605253 123.1115597486 -9.5345041603 0.0054714504 1
48.5549365282 123.1115597486 -9.6627646368 0.2181234284 1
50.3327125311 123.1115597486 -10.045505549 0.047497516 1
52.110488534 123.1115597486 -10.385324 0.3995862779 1
53.8882645369 123.1115597486 0 -0 0
-125.6671117544 121.3337837458 0 -0 0
-123.8893357515 121.3337837458 -10.2341023335 -0.2085265532 1
-122.1115597486 121.3337837458 -10.098855412 -0.2400550521 1
-120.3337837458 121.3337837458 -9.9000674963 0.0365818222 1
-118.5560077429 121.3337837458 -10.1375951708 0.2459947475 1
-116.77823174 121.3337837458 -10.2445397587 0.3304750294 1
-115.0004557371 121.3337837458 -10.0570870959 0.054854834 1
-113.2226797342 121.3337837458 -10.0562680251 -0.2866991306 1
-111.4449037313 121.3337837458 -9.8924051747 -0.2539248422 1
-109.6671277285 121.3337837458 -9.5938209255 -0.2185415555 1
-107.8893517256 121.3337837458 -10.167756165 -0.243955662 1
-106.1115757227 121.3337837458 -10.1246847817 -0.2674881968 1
-104.3337997198 121.3337837458 -10.0520266129 -0.1705972736 1
-102.5560237169 121.3337837458 -10.2408725553 -0.1964452586 1
-100.778247714 121.3337837458 -10.3471197875 -0.3403926597 1
-99.0004717112 121.3337837458 -9.8107157477 -0.5114352672 1
-97.2226957083 121.3337837458 -8.9276843728 -0.2181191326 1
-95.4449197054 121.3337837458 -10.2106714666 -0.0602933497 1
-93.6671437025 121.3337837458 -10.5501562751 0.0658435569 1
-91.8893676996 121.3337837458 -9.5781912786 0.2755915566 1
-90.1115916967 121.3337837458 -9.442404515 0.0742633758 1
-88.3338156939 121.3337837458 -9.5886788218 -0.0469533781 1
-86.556039691 121.3337837458 -9.6410406448 -0.0241582934 1
-84.7782636881 121.3337837458 -9.9544870199 -0.2000938468 1
-83.0004876852 121.3337837458 -10.2309434695 -0.1087932251 1
-81.2227116823 121.3337837458 -10.3969785759 -0.1429106751 1
-79.4449356794 121.3337837458 -10.4191135352 -0.3361641349 1
-77.6671596766 121.3337837458 -9.9380483258 -0.2021171808 1
-75.8893836737 121.3337837458 -9.9533099636 0.0341790235 1
-74.1116076708 121.3337837458 -10.3073060722 0.1328741936 1
-72.3338316679 121.3337837458 0 -0 0
-70.556055665 121.3337837458 0 -0 0
-68.7782796621 121.3337837458 0 -0 0
-67.0005036592 121.3337837458 0 -0 0
-65.2227276564 121.3337837458 0 -0 0
-63.4449516535 121.3337837458 0 -0 0
-61.6671756506 121.3337837458 0 -0 0
-59.8893996477 121.3337837458 -10.5055813527 -0.1490408188 1
-58.1116236448 121.3337837458 -10.5233002029 -0.3637705447 1
-56.3338476419 121.3337837458 -10.6580316253 -0.0664406767 1
-54.5560716391 121.3337837458 -10.5108637867 -0.0353675354 1
-52.7782956362 121.3337837458 -9.7705955969 -0.361934795 1
-51.0005196333 121.3337837458 -9.1557827092 0.0636254787 1
-49.2227436304 121.3337837458 -10.0433991624 -0.0153604418 1
-47.4449676275 121.3337837458 -10.2759780453 -0.222552425 1
-45.6671916246 121.3337837458 -10.3801060033 -0.3241086153 1
-43.8894156218 121.3337837458 -10.758614095 0.221517131 1
-42.1116396189 121.3337837458 -10.8187757061 0.293134278 1
-40.333863616 121.3337837458 -10.7152019095 0.1199666685 1
-38.5560876131 121.3337837458 -10.4173937729 0.3109218614 1
-36.7783116102 121.3337837458 -10.6603513714 -0.0169226905 1
-35.0005356073 121.3337837458 -11.1576433475 0.0265038144 1
-33.2227596045 121.3337837458 -10.7005674623 -0.1375222774 1
-31.4449836016 121.3337837458 -10.6436005139 -0.4331237914 1
-29.6672075987 121.3337837458 -11.006719525 -0.5421346717 1
-27.8894315958 121.3337837458 -10.4313494796 -0.3751487558 1
-26.1116555929 121.3337837458 -10.23567031 0.0133514272 1
-24.33387959 121.3337837458 -9.9557127623 0.1105330346 1
-22.5561035872 121.3337837458 -10.0644744847 -0.1199967393 1
-20.7783275843 121.3337837458 -10.4783114493 -0.2094086294 1
-19.0005515814 121.3337837458 -10.4937134174 0.2643837466 1
-17.2227755785 121.3337837458 -10.487898301 0.046585369 1
-15.4449995756 121.3337837458 -10.241744608 -0.9036556355 1
-13.6672235727 121.3337837458 -10.4784030936 -0.2706112623 1
-11.8894475698 121.3337837458 -10.8382916435 0.2259962455 1
-10.111671567 121.3337837458 -10.3930235521 0.043251808 1
-8.3338955641 121.3337837458 -10.4247911853 -0.0258809196 1
-6.5561195612 121.3337837458 -11.0018237153 0.242771446 1
-4.7783435583 121.3337837458 -10.9307378188 0.9955304659 1
-3.0005675554 121.3337837458 -10.5547699922 0.4101096196 1
-1.2227915525 121.3337837458 -10.4170859054 -0.0914624311 1
0.5549844503 121.3337837458 -10.9821817669 -0.2010890465 1
2.3327604532 121.3337837458 -10.879630377 0.1978614492 1
4.1105364561 121.3337837458 -10.523175624 0.4400500948 1
5.888312459 121.3337837458 -10.3974654361 0.7430347018 1
7.6660884619 121.3337837458 -10.3201706391 0.6609242838 1
9.4438644648 121.3337837458 -9.8738958925 0.2509077404 1
11.2216404676 121.3337837458 -10.6921132768 0.1306246128 1
12.9994164705 121.3337837458 -10.4030915362 0.0588427924 1
14.7771924734 121.3337837458 0 -0 0
16.5549684763 121.3337837458 0 -0 0
18.3327444792 121.3337837458 0 -0 0
20.1105204821 121.3337837458 0 -0 0
21.8882964849 121.3337837458 0 -0 0
23.6660724878 121.3337837458 0 -0 0
25.4438484907 121.3337837458 0 -0 0
27.2216244936 121.3337837458 0 -0 0
28.9994004965 121.3337837458 0 -0 0
30.7771764994 121.3337837458 0 -0 0
32.5549525023 121.3337837458 0 -0 0
34.3327285051 121.3337837458 0 -0 0
36.110504508 121.3337837458 0 -0 0
37.8882805109 121.3337837458 -11.372036567 0.3034671714 1
39.6660565138 121.3337837458 -10.6784582779 0.3265944666 1
41.4438325167 121.3337837458 -10.1433043235 0.2534265264 1
43.2216085196 121.3337837458 -10.0725076793 0.4866168485 1
44.9993845224 121.3337837458 -9.824038536 0.1969851007 1
46.7771605253 121.3337837458 -9.3841946409 0.7050424167 1
48.5549365282 121.3337837458 -9.4812258944 0.5661683861 1
50.3327125311 121.3337837458 -9.6285813175 -0.0190706035 1
52.110488534 121.3337837458 -9.6395371057 -0.2548384212 1
53.8882645369 121.3337837458 0 -0 0
-125.6671117544 119.5560077429 0 -0 0
-123.8893357515 119.5560077429 -10.032990376 -0.0640221266 1
-122.1115597486 119.5560077429 -10.0979361052 -0.0238289468 1
-120.3337837458 119.5560077429 -9.9571948223 -0.0555722369 1
-118.5560077429 119.5560077429 -9.810881853 -0.1137276972 1
-116.77823174 119.5560077429 -10.009364765 -0.025428426 1
-115.0004557371 119.5560077429 -10.1399965375 -0.0399125193 1
-113.2226797342 119.5560077429 -10.506018095 -0.3047473275 1
-111.4449037313 119.5560077429 -10.1605105385 -0.2080196457 1
-109.6671277285 119.5560077429 -9.7166643655 -0.0779749695 1
-107.8893517256 119.5560077429 -10.1500688175 -0.1835119585 1
-106.1115757227 119.5560077429 -10.1343274791 -0.2335168049 1
-104.3337997198 119.5560077429 -9.960237699 -0.107190882 1
-102.5560237169 119.5560077429 -9.9634538407 -0.0051277843 1
-100.778247714 119.5560077429 -9.9727185054 -0.1647492225 1
-99.0004717112 119.5560077429 -9.6502566235 0.0202576834 1
-97.2226957083 119.5560077429 -9.6892211971 0.1950734581 1
-95.4449197054 119.5560077429 -9.8928233018 -0.0497299136 1
-93.6671437025 119.5560077429 -10.2469153505 -0.0160334545 1
-91.8893676996 119.5560077429 -9.8994059391 -0.0918733985 1
-90.1115916967 119.5560077429 -9.854823857 -0.2193821055 1
-88.3338156939 119.5560077429 -9.8481753503 -0.4648098039 1
-86.556039691 119.5560077429 -9.7149775378 -0.7309390877 1
-84.7782636881 119.5560077429 -10.2974786543 -0.3783018921 1
-83.0004876852 119.5560077429 -10.5200826293 0.1505772925 1
-81.2227116823 119.5560077429 -10.315804648 0.0049444957 1
-79.4449356794 119.5560077429 -10.3431447165 -0.2629331893 1
-77.6671596766 119.5560077429 -9.5897699616 -0.0462374071 1
-75.8893836737 119.5560077429 -9.9766706653 -0.1707304442 1
-74.1116076708 119.5560077429 -10.34498333 -0.3933014845 1
-72.3338316679 119.5560077429 0 -0 0
-70.556055665 119.5560077429 0 -0 0
-68.7782796621 119.5560077429 0 -0 0
-67.0005036592 119.5560077429 0 -0 0
-65.2227276564 119.5560077429 0 -0 0
-63.4449516535 119.5560077429 0 -0 0
-61.6671756506 119.5560077429 0 -0 0
-59.8893996477 119.5560077429 -10.7300253731 -0.3350858826 1
-58.1116236448 119.5560077429 -10.4566418711 -0.3093796599 1
-56.3338476419 119.5560077429 -10.5087416487 -0.1898511657 1
-54.5560716391 119.5560077429 -10.7994888793 0.0889522368 1
-52.7782956362 119.5560077429 -10.5304126588 0.1738162792 1
-51.0005196333 119.5560077429 -10.1442264941 0.3633452579 1
-49.2227436304 119.5560077429 -9.9874746677 -0.1886798371 1
-47.4449676275 119.5560077429 -10.1295562484 -0.5280586818 1
-45.6671916246 119.5560077429 -10.2472876554 -0.3699679896 1
-43.8894156218 119.5560077429 -10.7446383412 0.0184520046 1
-42.1116396189 119.5560077429 -11.0135298411 0.1176512183 1
-40.333863616 119.5560077429 -10.9395227829 -0.4013661818 1
-38.5560876131 119.5560077429 -10.6097665884 -0.5975594186 1
-36.7783116102 119.5560077429 -10.5724716591 -0.1082347677 1
-35.0005356073 119.5560077429 -10.7609381369 0.2318199536 1
-33.2227596045 119.5560077429 -10.0930646386 0.2676614618 1
-31.4449836016 119.5560077429 -10.1434432219 -0.2402197254 1
-29.6672075987 119.5560077429 -10.7512811201 -0.9311131232 1
-27.8894315958 119.5560077429 -10.2890946339 -0.5142719443 1
-26.1116555929 119.5560077429 -10.4925420889 -0.1569064762 1
-24.33387959 119.5560077429 -10.2987387633 0.3097133024 1
-22.5561035872 119.5560077429 -10.1911369139 0.2030407834 1
-20.7783275843 119.5560077429 -10.2099626554 0.1438070708 1
-19.0005515814 119.5560077429 -10.1207856037 0.3337384252 1
-17.2227755785 119.5560077429 -9.9048960047 -0.1568878609 1
-15.4449995756 119.5560077429 -10.05259223 -0.7886291669 1
-13.6672235727 119.5560077429 -10.4554161287 -0.7867046368 1
-11.8894475698 119.5560077429 -10.6669998781 -0.0092302981 1
-10.111671567 119.5560077429 -10.265072375 0.0678468437 1
-8.3338955641 119.5560077429 -10.1623047618 -0.0635066275 1
-6.5561195612 119.5560077429 -10.7062078819 0.1835821236 1
-4.7783435583 119.5560077429 -10.827838467 0.329150483 1
-3.0005675554 119.5560077429 -10.7433309781 0.0451877936 1
-1.2227915525 119.5560077429 -10.8754161717 -0.4046925831 1
0.5549844503 119.5560077429 -10.9256000109 -0.2206994921 1
2.3327604532 119.5560077429 -10.6725601088 0.2864857713 1
4.1105364561 119.5560077429 -10.6819235776 0.3168415096 1
5.888312459 119.5560077429 -10.7213435088 0.2633770913 1
7.6660884619 119.5560077429 -10.2172311929 0.4366091382 1
9.4438644648 119.5560077429 -9.9267560312 0.5409232487 1
11.2216404676 119.5560077429 -10.2595479428 0.2472834952 1
12.9994164705 119.5560077429 -10.2667992971 -0.1087502668 1
14.7771924734 119.5560077429 0 -0 0
16.5549684763 119.5560077429 0 -0 0
18.3327444792 119.5560077429 0 -0 0
20.1105204821 119.5560077429 0 -0 0
21.8882964849 119.5560077429 0 -0 0
23.6660724878 119.5560077429 0 -0 0
25.4438484907 119.5560077429 0 -0 0
27.2216244936 119.5560077429 0 -0 0
28.9994004965 119.5560077429 0 -0 0
30.7771764994 119.5560077429 0 -0 0
32.5549525023 119.5560077429 0 -0 0
34.3327285051 119.5560077429 0 -0 0
36.110504508 119.5560077429 -10.9961460653 0.2806992937 1
37.8882805109 119.5560077429 -10.9865162554 0.2667564745 1
39.6660565138 119.5560077429 -10.7262235671 0.2785528126 1
41.4438325167 119.5560077429 -9.3897233689 0.3457595783 1
43.2216085196 119.5560077429 -9.2294489652 0.6915692745 1
44.9993845224 119.5560077429 -9.8510621454 0.7396152243 1
46.7771605253 119.5560077429 -10.3491245063 0.6045888218 1
48.5549365282 119.5560077429 -9.7870529062 0.4324822814 1
50.3327125311 119.5560077429 -9.4227324958 0.236008384 1
52.110488534 119.5560077429 -9.4078689379 0.3726514489 1
53.8882645369 119.5560077429 0 -0 0
-125.6671117544 117.77823174 0 -0 0
-123.8893357515 117.77823174 -10.1111830006 0.0599926419 1
-122.1115597486 117.77823174 -10.565586882 -0.0229497344 1
-120.3337837458 117.77823174 -10.2024292085 -0.1938849463 1
-118.5560077429 117.77823174 -9.5100036327 -0.4870621825 1
-116.77823174 117.77823174 -9.7804759966 -0.3292951092 1
-115.0004557371 117.77823174 -10.1020128441 -0.0519537195 1
-113.2226797342 117.77823174 -10.4523503409 -0.1017495024 1
-111.4449037313 117.77823174 -10.0530246765 -0.0855213038 1
-109.6671277285 117.77823174 -9.7482530059 -0.0052380438 1
-107.8893517256 117.77823174 -9.7758894864 0.0692415552 1
-106.1115757227 117.77823174 -9.8325113368 0.0438503597 1
-104.3337997198 117.77823174 -9.9640667119 -0.0493819517 1
-102.5560237169 117.77823174 -9.9028540555 0.1980905599 1
-100.778247714 117.77823174 -9.7938517668 0.1286170301 1
-99.0004717112 117.77823174 -9.402063845 0.0153332349 1
-97.2226957083 117.77823174 -10.0214990415 0.177745528 1
-95.4449197054 117.77823174 -10.1290378854 0.0983930304 1
-93.6671437025 117.77823174 -10.1142946106 -0.1597775199 1
-91.8893676996 117.77823174 -9.9803478924 -0.2241504723 1
-90.1115916967 117.77823174 -10.3133474355 0.0373808458 1
-88.3338156939 117.77823174 -10.3321158993 -0.1068844464 1
-86.556039691 117.77823174 -10.0846963695 -0.5734483792 1
-84.7782636881 117.77823174 -10.562698655 -0.4860182968 1
-83.0004876852 117.77823174 -10.6292911175 -0.0796532055 1
-81.2227116823 117.77823174 -10.2968400082 0.1067054537 1
-79.4449356794 117.77823174 -10.0733238862 -0.0416337135 1
-77.6671596766 117.77823174 -10.0380394035 0.0385822451 1
-75.8893836737 117.77823174 -10.3540117243 -0.1023967402 1
-74.1116076708 117.77823174 -10.3679387922 -0.2604888643 1
-72.3338316679 117.77823174 0 -0 0
-70.556055665 117.77823174 0 -0 0
-68.7782796621 117.77823174 0 -0 0
-67.0005036592 117.77823174 0 -0 0
-65.2227276564 117.77823174 0 -0 0
-63.4449516535 117.77823174 0 -0 0
-61.6671756506 117.77823174 0 -0 0
-59.8893996477 117.77823174 -10.9381008645 -0.3897975224 1
-58.1116236448 117.77823174 -9.5739541623 -0.2136557694 1
-56.3338476419 117.77823174 -10.085031444 -0.2479822829 1
-54.5560716391 117.77823174 -10.702155486 0.1350808163 1
-52.7782956362 117.77823174 -10.5660952214 -0.1348517055 1
-51.0005196333 117.77823174 -10.3684056053 -0.4241755858 1
-49.2227436304 117.77823174 -10.4252007207 -0.2585170802 1
-47.4449676275 117.77823174 -10.2675295875 -0.4050419769 1
-45.6671916246 117.77823174 -10.3561696609 -0.0778690057 1
-43.8894156218 117.77823174 -10.9092529611 0.0870019318 1
-42.1116396189 117.77823174 -11.0119489772 -0.0989643752 1
-40.333863616 117.77823174 -10.9458863332 -0.5737705662 1
-38.5560876131 117.77823174 0 -0 0
-36.7783116102 117.77823174 -10.3014479975 -0.1882545503 1
-35.0005356073 117.77823174 -10.4306607155 0.2606506738 1
-33.2227596045 117.77823174 -10.2643206055 0.3580370489 1
-31.4449836016 117.77823174 -10.2695944478 0.7413163714 1
-29.6672075987 117.77823174 -9.2859018464 -0.2325702912 1
-27.8894315958 117.77823174 -10.093474174 0.0458751257 1
-26.1116555929 117.77823174 -10.9868685131 -0.0404881599 1
-24.33387959 117.77823174 -11.2194731709 0.2508819655 1
-22.5561035872 117.77823174 -10.5818866778 0.2613566212 1
-20.7783275843 117.77823174 -10.0220875696 0.1407584663 1
-19.0005515814 117.77823174 -9.8079478038 0.0454455431 1
-17.2227755785 117.77823174 -10.1311786387 -0.1345882282 1
-15.4449995756 117.77823174 -10.1563149485 -0.2313216378 1
-13.6672235727 117.77823174 -10.5831926089 -0.5071079385 1
-11.8894475698 117.77823174 -11.0532433204 0.3028027503 1
-10.111671567 117.77823174 -10.8061588651 0.5073785755 1
-8.3338955641 117.77823174 -9.839073927 0.58745134 1
-6.5561195612 117.77823174 -10.1821428863 0.5172618392 1
-4.7783435583 117.77823174 -10.5740009732 0.2596526102 1
-3.0005675554 117.77823174 -10.6913013657 0.0418241618 1
-1.2227915525 117.77823174 -10.8687003638 -0.1881586102 1