TITLE = "B00050"
VARIABLES = "x", "y", "Vx", "Vy", "isValid"
ZONE T="Frame 0", I=102, J=78, F=POINT
-125.6671117544 126.6671117544 0 -0 0
-123.8893357515 126.6671117544 0 -0 0
-122.1115597486 126.6671117544 0 -0 0
-120.3337837458 126.6671117544 0 -0 0
-118.5560077429 126.6671117544 0 -0 0
-116.77823174 126.6671117544 0 -0 0
-115.0004557371 126.6671117544 0 -0 0
-113.2226797342 126.6671117544 0 -0 0
-111.4449037313 126.6671117544 0 -0 0
-109.6671277285 126.6671117544 0 -0 0
-107.8893517256 126.6671117544 0 -0 0
-106.1115757227 126.6671117544 0 -0 0
-104.3337997198 126.6671117544 0 -0 0
-102.5560237169 126.6671117544 0 -0 0
-100.778247714 126.6671117544 0 -0 0
-99.0004717112 126.6671117544 0 -0 0
-97.2226957083 126.6671117544 0 -0 0
-95.4449197054 126.6671117544 0 -0 0
-93.6671437025 126.6671117544 0 -0 0
-91.8893676996 126.6671117544 0 -0 0
-90.1115916967 126.6671117544 0 -0 0
-88.3338156939 126.6671117544 0 -0 0
-86.556039691 126.6671117544 0 -0 0
-84.7782636881 126.6671117544 0 -0 0
-83.0004876852 126.6671117544 0 -0 0
-81.2227116823 126.6671117544 0 -0 0
-79.4449356794 126.6671117544 0 -0 0
-77.6671596766 126.6671117544 0 -0 0
-75.8893836737 126.6671117544 0 -0 0
-74.1116076708 126.6671117544 0 -0 0
-72.3338316679 126.6671117544 0 -0 0
-70.556055665 126.6671117544 0 -0 0
-68.7782796621 126.6671117544 0 -0 0
-67.0005036592 126.6671117544 0 -0 0
-65.2227276564 126.6671117544 0 -0 0
-63.4449516535 126.6671117544 0 -0 0
-61.6671756506 126.6671117544 0 -0 0
-59.8893996477 126.6671117544 0 -0 0
-58.1116236448 126.6671117544 0 -0 0
-56.3338476419 126.6671117544 0 -0 0
-54.5560716391 126.6671117544 0 -0 0
-52.7782956362 126.6671117544 0 -0 0
-51.0005196333 126.6671117544 0 -0 0
-49.2227436304 126.6671117544 0 -0 0
-47.4449676275 126.6671117544 0 -0 0
-45.6671916246 126.6671117544 0 -0 0
-43.8894156218 126.6671117544 0 -0 0
-42.1116396189 126.6671117544 0 -0 0
-40.333863616 126.6671117544 0 -0 0
-38.5560876131 126.6671117544 0 -0 0
-36.7783116102 126.6671117544 0 -0 0
-35.0005356073 126.6671117544 0 -0 0
-33.2227596045 126.6671117544 0 -0 0
-31.4449836016 126.6671117544 0 -0 0
-29.6672075987 126.6671117544 0 -0 0
-27.8894315958 126.6671117544 0 -0 0
-26.1116555929 126.6671117544 0 -0 0
-24.33387959 126.6671117544 0 -0 0
-22.5561035872 126.6671117544 0 -0 0
-20.7783275843 126.6671117544 0 -0 0
-19.0005515814 126.6671117544 0 -0 0
-17.2227755785 126.6671117544 0 -0 0
-15.4449995756 126.6671117544 0 -0 0
-13.6672235727 126.6671117544 0 -0 0
-11.8894475698 126.6671117544 0 -0 0
-10.111671567 126.6671117544 0 -0 0
-8.3338955641 126.6671117544 0 -0 0
-6.5561195612 126.6671117544 0 -0 0
-4.7783435583 126.6671117544 0 -0 0
-3.0005675554 126.6671117544 0 -0 0
-1.2227915525 126.6671117544 0 -0 0
0.5549844503 126.6671117544 0 -0 0
2.3327604532 126.6671117544 0 -0 0
4.1105364561 126.6671117544 0 -0 0
5.888312459 126.6671117544 0 -0 0
7.6660884619 126.6671117544 0 -0 0
9.4438644648 126.6671117544 0 -0 0
11.2216404676 126.6671117544 0 -0 0
12.9994164705 126.6671117544 0 -0 0
14.7771924734 126.6671117544 0 -0 0
16.5549684763 126.6671117544 0 -0 0
18.3327444792 126.6671117544 0 -0 0
20.1105204821 126.6671117544 0 -0 0
21.8882964849 126.6671117544 0 -0 0
23.6660724878 126.6671117544 0 -0 0
25.4438484907 126.6671117544 0 -0 0
27.2216244936 126.6671117544 0 -0 0
28.9994004965 126.6671117544 0 -0 0
30.7771764994 126.6671117544 0 -0 0
32.5549525023 126.6671117544 0 -0 0
34.3327285051 126.6671117544 0 -0 0
36.110504508 126.6671117544 0 -0 0
37.8882805109 126.6671117544 0 -0 0
39.6660565138 126.6671117544 0 -0 0
41.4438325167 126.6671117544 0 -0 0
43.2216085196 126.6671117544 0 -0 0
44.9993845224 126.6671117544 0 -0 0
46.7771605253 126.6671117544 0 -0 0
48.5549365282 126.6671117544 0 -0 0
50.3327125311 126.6671117544 0 -0 0
52.110488534 126.6671117544 0 -0 0
53.8882645369 126.6671117544 0 -0 0
-125.6671117544 124.8893357515 0 -0 0
-123.8893357515 124.8893357515 -10.5459556732 -0.2544360455 1
-122.1115597486 124.8893357515 -10.7632943975 -0.3700181076 1
-120.3337837458 124.8893357515 -10.7901998716 -0.5307779397 1
-118.5560077429 124.8893357515 -10.8032305438 -0.3365550551 1
-116.77823174 124.8893357515 -10.304151504 -0.3529364715 1
-115.0004557371 124.8893357515 -9.8874048333 -0.2103981014 1
-113.2226797342 124.8893357515 -10.4265438823 -0.2186432234 1
-111.4449037313 124.8893357515 -10.7737411303 -0.1418252631 1
-109.6671277285 124.8893357515 -10.6134481113 -0.4729518261 1
-107.8893517256 124.8893357515 -10.5266237403 -0.4125711279 1
-106.1115757227 124.8893357515 -10.6348169817 -0.1124561327 1
-104.3337997198 124.8893357515 -10.7574513581 -0.4083383074 1
-102.5560237169 124.8893357515 -10.9030812911 -0.0899574601 1
-100.778247714 124.8893357515 -11.0165777297 0.2927333342 1
-99.0004717112 124.8893357515 -10.6834493117 -0.2195610982 1
-97.2226957083 124.8893357515 -10.3787671376 -0.4271669127 1
-95.4449197054 124.8893357515 -10.7368986947 -0.2659488592 1
-93.6671437025 124.8893357515 -10.9417516007 -0.2607351584 1
-91.8893676996 124.8893357515 -10.6595237089 0.3852797454 1
-90.1115916967 124.8893357515 -10.8169829147 0.5068501889 1
-88.3338156939 124.8893357515 -10.9279161771 0.4643501505 1
-86.556039691 124.8893357515 -10.9606374836 0.2383682244 1
-84.7782636881 124.8893357515 -10.0621289637 0.6333737198 1
-83.0004876852 124.8893357515 -11.0339915763 0.5156580642 1
-81.2227116823 124.8893357515 -10.915847054 -0.0944423024 1
-79.4449356794 124.8893357515 -10.9666673914 -0.1113478096 1
-77.6671596766 124.8893357515 -11.3681094661 0.3805385855 1
-75.8893836737 124.8893357515 -10.7248861333 0.4354564249 1
-74.1116076708 124.8893357515 -10.8768087353 0.5720808746 1
-72.3338316679 124.8893357515 -11.1201973483 0.976591601 1
-70.556055665 124.8893357515 0 -0 0
-68.7782796621 124.8893357515 0 -0 0
-67.0005036592 124.8893357515 0 -0 0
-65.2227276564 124.8893357515 0 -0 0
-63.4449516535 124.8893357515 0 -0 0
-61.6671756506 124.8893357515 0 -0 0
-59.8893996477 124.8893357515 0 -0 0
-58.1116236448 124.8893357515 -10.4876963971 0.6516109331 1
-56.3338476419 124.8893357515 -9.9155023991 0.7314273799 1
-54.5560716391 124.8893357515 -11.4980138121 0.7469338798 1
-52.7782956362 124.8893357515 -10.9947241469 0.7020611135 1
-51.0005196333 124.8893357515 -11.2763448952 0.3582976624 1
-49.2227436304 124.8893357515 -10.1517928756 0.7601807752 1
-47.4449676275 124.8893357515 -10.2238567885 0.9559086309 1
-45.6671916246 124.8893357515 -10.4655356628 0.8112738976 1
-43.8894156218 124.8893357515 -10.160819838 0.9974120377 1
-42.1116396189 124.8893357515 -10.0406569934 0.8530135748 1
-40.333863616 124.8893357515 -10.6797921319 0.9214117162 1
-38.5560876131 124.8893357515 -10.5119076724 0.8502084005 1
-36.7783116102 124.8893357515 -10.4486330195 0.7832737038 1
-35.0005356073 124.8893357515 -10.6692065007 0.9867526614 1
-33.2227596045 124.8893357515 -10.4733010843 1.0155103526 1
-31.4449836016 124.8893357515 -9.8103319873 0.7971134232 1
-29.6672075987 124.8893357515 -10.0337693524 0.6852042923 1
-27.8894315958 124.8893357515 -10.5883662153 0.7335581096 1
-26.1116555929 124.8893357515 -10.06478808 0.6646287178 1
-24.33387959 124.8893357515 -9.8530582725 0.453130885 1
-22.5561035872 124.8893357515 -10.0529215766 0.9232345784 1
-20.7783275843 124.8893357515 -10.0066283238 1.2464310466 1
-19.0005515814 124.8893357515 -10.4272097353 0.791168 1
-17.2227755785 124.8893357515 -9.4507069146 0.679682724 1
-15.4449995756 124.8893357515 -10.5038988208 1.0753827113 1
-13.6672235727 124.8893357515 -10.1575664658 1.2723119662 1
-11.8894475698 124.8893357515 -10.0313035483 1.6542524229 1
-10.111671567 124.8893357515 -9.5849027908 1.1638767267 1
-8.3338955641 124.8893357515 -10.698970131 1.2158547892 1
-6.5561195612 124.8893357515 -10.1809228717 0.8522274387 1
-4.7783435583 124.8893357515 -9.8749913281 0.2769519015 1
-3.0005675554 124.8893357515 -9.6298843847 1.0292154694 1
-1.2227915525 124.8893357515 -9.4840410924 0.0527026252 1
0.5549844503 124.8893357515 -9.7007383066 0.9707993957 1
2.3327604532 124.8893357515 -10.1734509983 1.0021216949 1
4.1105364561 124.8893357515 -9.8011417835 0.855873163 1
5.888312459 124.8893357515 -9.2089793543 0.7923708313 1
7.6660884619 124.8893357515 -9.2994279705 1.0094933323 1
9.4438644648 124.8893357515 -9.1500420537 0.7227784503 1
11.2216404676 124.8893357515 -10.3098091069 0.7269454015 1
12.9994164705 124.8893357515 0 -0 0
14.7771924734 124.8893357515 0 -0 0
16.5549684763 124.8893357515 0 -0 0
18.3327444792 124.8893357515 0 -0 0
20.1105204821 124.8893357515 0 -0 0
21.8882964849 124.8893357515 0 -0 0
23.6660724878 124.8893357515 0 -0 0
25.4438484907 124.8893357515 0 -0 0
27.2216244936 124.8893357515 0 -0 0
28.9994004965 124.8893357515 0 -0 0
30.7771764994 124.8893357515 0 -0 0
32.5549525023 124.8893357515 0 -0 0
34.3327285051 124.8893357515 0 -0 0
36.110504508 124.8893357515 -9.8659872768 0.9765987608 1
37.8882805109 124.8893357515 -10.0198666276 0.8153520684 1
39.6660565138 124.8893357515 -9.6693830727 1.1627655397 1
41.4438325167 124.8893357515 -9.7104654886 0.6984025017 1
43.2216085196 124.8893357515 -9.5718549353 0.9174996507 1
44.9993845224 124.8893357515 0 -0 0
46.7771605253 124.8893357515 -9.5650217081 -0.2316939427 1
48.5549365282 124.8893357515 -9.7575162387 0.2982262637 1
50.3327125311 124.8893357515 -9.5659066482 0.122028665 1
52.110488534 124.8893357515 -9.1068389318 0.204335259 1
53.8882645369 124.8893357515 0 -0 0
-125.6671117544 123.1115597486 0 -0 0
-123.8893357515 123.1115597486 -10.7164362435 -0.2208068877 1
-122.1115597486 123.1115597486 -11.1582762659 -0.1416562939 1
-120.3337837458 123.1115597486 -10.7308752307 -0.0548419465 1
-118.5560077429 123.1115597486 -10.3381200321 -0.1106919802 1
-116.77823174 123.1115597486 -10.1580246872 0.1597617685 1
-115.0004557371 123.1115597486 -10.3897529966 -0.0217712461 1
-113.2226797342 123.1115597486 -10.2865887354 -0.3500969306 1
-111.4449037313 123.1115597486 -10.8256432999 -0.3655733597 1
-109.6671277285 123.1115597486 -10.6413652525 -0.3936107839 1
-107.8893517256 123.1115597486 -10.6588714593 -0.2256454197 1
-106.1115757227 123.1115597486 -10.4319666466 0.1876660222 1
-104.3337997198 123.1115597486 -10.2804184974 -0.2730011735 1
-102.5560237169 123.1115597486 -10.8457914397 -0.4651219672 1
-100.778247714 123.1115597486 -10.998672011 -0.132643651 1
-99.0004717112 123.1115597486 -10.8791220376 -0.2710551643 1
-97.2226957083 123.1115597486 -10.3885587569 -0.1114795483 1
-95.4449197054 123.1115597486 -10.8929961236 -0.3417687559 1
-93.6671437025 123.1115597486 -10.8024630228 -0.2900871054 1
-91.8893676996 123.1115597486 -10.9706897165 0.377613128 1
-90.1115916967 123.1115597486 -10.9341071783 0.7272103108 1
-88.3338156939 123.1115597486 -10.6156611777 0.3703760931 1
-86.556039691 123.1115597486 -10.9255949991 0.2029792099 1
-84.7782636881 123.1115597486 0 -0 0
-83.0004876852 123.1115597486 -11.1945043984 0.5847449696 1
-81.2227116823 123.1115597486 -11.205400045 0.0360133412 1
-79.4449356794 123.1115597486 -10.9168143308 0.0612398633 1
-77.6671596766 123.1115597486 -11.1201278991 0.3884872955 1
-75.8893836737 123.1115597486 -10.1326535389 0.3804626925 1
-74.1116076708 123.1115597486 -10.8858106387 0.4135963984 1
-72.3338316679 123.1115597486 -11.1389622322 0.7488168836 1
-70.556055665 123.1115597486 0 -0 0
-68.7782796621 123.1115597486 0 -0 0
-67.0005036592 123.1115597486 0 -0 0
-65.2227276564 123.1115597486 0 -0 0
-63.4449516535 123.1115597486 0 -0 0
-61.6671756506 123.1115597486 0 -0 0
-59.8893996477 123.1115597486 -10.2838007444 0.4760920749 1
-58.1116236448 123.1115597486 -10.4178906568 0.5369710888 1
-56.3338476419 123.1115597486 -10.6401438059 0.6973514563 1
-54.5560716391 123.1115597486 -9.5637071853 0.6599605869 1
-52.7782956362 123.1115597486 -10.4442369576 0.7334149154 1
-51.0005196333 123.1115597486 -10.7670238904 0.8167038216 1
-49.2227436304 123.1115597486 -10.1870673348 0.8283555337 1
-47.4449676275 123.1115597486 -10.3820061904 0.6605591386 1
-45.6671916246 123.1115597486 -10.3750197454 0.8426763856 1
-43.8894156218 123.1115597486 -10.3267948028 0.9220131319 1
-42.1116396189 123.1115597486 -10.5222491575 0.7060691191 1
-40.333863616 123.1115597486 -10.6150568981 1.0379116531 1
-38.5560876131 123.1115597486 -10.2061909201 0.7316121005 1
-36.7783116102 123.1115597486 -10.3517535518 0.6743143734 1
-35.0005356073 123.1115597486 -10.3732971191 1.0860735902 1
-33.2227596045 123.1115597486 -10.4261386427 0.9525793657 1
-31.4449836016 123.1115597486 -9.4581172145 0.5599924203 1
-29.6672075987 123.1115597486 -9.8595106032 0.2228330857 1
-27.8894315958 123.1115597486 -10.3066974969 1.0179818844 1
-26.1116555929 123.1115597486 -10.616541822 0.8665812253 1
-24.33387959 123.1115597486 -10.4221435245 0.2830562702 1
-22.5561035872 123.1115597486 -10.3927027971 0.6677718305 1
-20.7783275843 123.1115597486 -10.4743907921 0.9743563396 1
-19.0005515814 123.1115597486 -10.1039316464 0.7818317382 1
-17.2227755785 123.1115597486 -9.9643459406 0.2472305134 1
-15.4449995756 123.1115597486 0 -0 0
-13.6672235727 123.1115597486 -10.0507622081 0.8581599744 1
-11.8894475698 123.1115597486 -9.6011367172 0.7219078296 1
-10.111671567 123.1115597486 -9.7336242865 0.7886563738 1
-8.3338955641 123.1115597486 -10.3921028134 0.7900424936 1
-6.5561195612 123.1115597486 -9.9050334712 0.8752587937 1
-4.7783435583 123.1115597486 0 -0 0
-3.0005675554 123.1115597486 -9.4018963078 1.0015345987 1
-1.2227915525 123.1115597486 -9.2870073057 0.7660474416 1
0.5549844503 123.1115597486 -9.8427368346 1.2536566259 1
2.3327604532 123.1115597486 -9.9249489205 0.8748535542 1
4.1105364561 123.1115597486 -9.8741622337 0.9921654022 1
5.888312459 123.1115597486 -9.8198973598 0.7444995784 1
7.6660884619 123.1115597486 -9.8090461033 1.0117099785 1
9.4438644648 123.1115597486 -9.4262364579 0.555852676 1
11.2216404676 123.1115597486 0 -0 0
12.9994164705 123.1115597486 0 -0 0
14.7771924734 123.1115597486 0 -0 0
16.5549684763 123.1115597486 0 -0 0
18.3327444792 123.1115597486 0 -0 0
20.1105204821 123.1115597486 0 -0 0
21.8882964849 123.1115597486 0 -0 0
23.6660724878 123.1115597486 0 -0 0
25.4438484907 123.1115597486 0 -0 0
27.2216244936 123.1115597486 0 -0 0
28.9994004965 123.1115597486 0 -0 0
30.7771764994 123.1115597486 0 -0 0
32.5549525023 123.1115597486 0 -0 0
34.3327285051 123.1115597486 0 -0 0
36.110504508 123.1115597486 -9.967569242 0.6674453477 1
37.8882805109 123.1115597486 -9.7254035075 0.3858940485 1
39.6660565138 123.1115597486 -9.1142034095 0.8613832758 1
41.4438325167 123.1115597486 -9.6264047656 0.7046128341 1
43.2216085196 123.1115597486 -9.0199787622 0.8246510997 1
44.9993845224 123.1115597486 -9.0865669289 -0.0525150408 1
46.7771605253 123.1115597486 -9.6077050351 0.2636362728 1
48.5549365282 123.1115597486 -9.5872125132 0.2645068936 1
50.3327125311 123.1115597486 -9.5617024665 0.246377076 1
52.110488534 123.1115597486 -8.7077065795 -0.22613228 1
53.8882645369 123.1115597486 0 -0 0
-125.6671117544 121.3337837458 0 -0 0
-123.8893357515 121.3337837458 -10.5080314054 -0.4756739478 1
-122.1115597486 121.3337837458 -10.7701992218 -0.5919834364 1
-120.3337837458 121.3337837458 -11.0880946407 -0.1055584681 1
-118.5560077429 121.3337837458 -10.4024972803 -0.1089994247 1
-116.77823174 121.3337837458 -10.5602457384 -0.2961599714 1
-115.0004557371 121.3337837458 -10.6318385424 -0.4287334572 1
-113.2226797342 121.3337837458 -10.640365041 -0.4190177308 1
-111.4449037313 121.3337837458 -10.485650152 -0.170784858 1
-109.6671277285 121.3337837458 -10.1583683533 -0.2580903615 1
-107.8893517256 121.3337837458 -10.3210054613 -0.4616566676 1
-106.1115757227 121.3337837458 -10.7492864249 -0.1141844867 1
-104.3337997198 121.3337837458 -10.3842901378 -0.2146409455 1
-102.5560237169 121.3337837458 -10.4221750272 -0.6484506371 1
-100.778247714 121.3337837458 0 -0 0
-99.0004717112 121.3337837458 -10.9239282186 -0.2767242227 1
-97.2226957083 121.3337837458 -10.8538976634 0.0691957331 1
-95.4449197054 121.3337837458 -10.8419867698 -0.0914853422 1
-93.6671437025 121.3337837458 -10.3550942725 -0.1719604824 1
-91.8893676996 121.3337837458 -11.050514755 0.1998575763 1
-90.1115916967 121.3337837458 -10.6743765273 0.8313225175 1
-88.3338156939 121.3337837458 -10.4636025411 0.5619599086 1
-86.556039691 121.3337837458 -10.7812588258 0.4075478754 1
-84.7782636881 121.3337837458 -10.5967523836 -0.2400994423 1
-83.0004876852 121.3337837458 -11.1311438289 0.2185902415 1
-81.2227116823 121.3337837458 -10.7582768727 -0.3393587975 1
-79.4449356794 121.3337837458 -10.855610982 0.0516601714 1
-77.6671596766 121.3337837458 -10.7655955282 0.2590998806 1
-75.8893836737 121.3337837458 -10.3991708791 0.428269508 1
-74.1116076708 121.3337837458 -11.144274737 0.4911460811 1
-72.3338316679 121.3337837458 -10.9688546828 0.3829055856 1
-70.556055665 121.3337837458 -11.0130501406 0.5061127388 1
-68.7782796621 121.3337837458 0 -0 0
-67.0005036592 121.3337837458 0 -0 0
-65.2227276564 121.3337837458 0 -0 0
-63.4449516535 121.3337837458 0 -0 0
-61.6671756506 121.3337837458 0 -0 0
-59.8893996477 121.3337837458 -10.1076790386 0.274593493 1
-58.1116236448 121.3337837458 -10.7781758546 0.5949117578 1
-56.3338476419 121.3337837458 -11.1533045632 0.2971179406 1
-54.5560716391 121.3337837458 -10.4034394982 0.4674331216 1
-52.7782956362 121.3337837458 -10.3950110876 0.6349273769 1
-51.0005196333 121.3337837458 -10.698428857 0.5257661427 1
-49.2227436304 121.3337837458 -10.6145127602 0.7609697753 1
-47.4449676275 121.3337837458 -10.4729932167 1.0083019565 1
-45.6671916246 121.3337837458 -10.7492033722 0.7993859151 1
-43.8894156218 121.3337837458 -10.70477236 0.7778552353 1
-42.1116396189 121.3337837458 -10.4754733403 0.5876217411 1
-40.333863616 121.3337837458 -10.8763555257 1.0116312217 1
-38.5560876131 121.3337837458 -9.777431688 0.5031858494 1
-36.7783116102 121.3337837458 -9.6629307421 0.9321942395 1
-35.0005356073 121.3337837458 -10.3430874388 1.1156202814 1
-33.2227596045 121.3337837458 -10.3808620687 1.1453788999 1
-31.4449836016 121.3337837458 -10.9487602408 1.4809430512 1
-29.6672075987 121.3337837458 -10.9433918902 0.658919565 1
-27.8894315958 121.3337837458 0 -0 0
-26.1116555929 121.3337837458 -10.7828475654 0.5735414555 1
-24.33387959 121.3337837458 -9.7694414516 0.713330497 1
-22.5561035872 121.3337837458 -9.669275677 0.2110868655 1
-20.7783275843 121.3337837458 -10.3021367616 0.6664386925 1
-19.0005515814 121.3337837458 -9.8836202106 1.0721966404 1
-17.2227755785 121.3337837458 -10.1920390374 1.6188934792 1
-15.4449995756 121.3337837458 -9.5302842272 1.1007581554 1
-13.6672235727 121.3337837458 -9.9410711554 0.9299990724 1
-11.8894475698 121.3337837458 -9.4830201177 0.5406168131 1
-10.111671567 121.3337837458 -10.0469331952 1.0584099028 1
-8.3338955641 121.3337837458 -10.4622364685 0.9974363807 1
-6.5561195612 121.3337837458 -10.6397170872 0.9651403609 1
-4.7783435583 121.3337837458 -9.1529947181 0.6686109485 1
-3.0005675554 121.3337837458 -8.9705939467 0.7237521709 1
-1.2227915525 121.3337837458 -9.2657544226 0.8386784035 1
0.5549844503 121.3337837458 -10.1481399916 1.7880015331 1
2.3327604532 121.3337837458 -9.7078550583 0.7664011313 1
4.1105364561 121.3337837458 -9.9458767527 1.3683666353 1
5.888312459 121.3337837458 -10.1648665061 0.8349095322 1
7.6660884619 121.3337837458 -10.1722839656 0.8284815446 1
9.4438644648 121.3337837458 -9.7915620916 0.7385011734 1
11.2216404676 121.3337837458 0 -0 0
12.9994164705 121.3337837458 0 -0 0
14.7771924734 121.3337837458 0 -0 0
16.5549684763 121.3337837458 0 -0 0
18.3327444792 121.3337837458 0 -0 0
20.1105204821 121.3337837458 0 -0 0
21.8882964849 121.3337837458 0 -0 0
23.6660724878 121.3337837458 0 -0 0
25.4438484907 121.3337837458 0 -0 0
27.2216244936 121.3337837458 0 -0 0
28.9994004965 121.3337837458 0 -0 0
30.7771764994 121.3337837458 0 -0 0
32.5549525023 121.3337837458 0 -0 0
34.3327285051 121.3337837458 0 -0 0
36.110504508 121.3337837458 -9.754595077 0.3106555202 1
37.8882805109 121.3337837458 -9.893089643 0.9159245145 1
39.6660565138 121.3337837458 -9.8289472332 1.0708162483 1
41.4438325167 121.3337837458 -9.3119059131 0.2653531713 1
43.2216085196 121.3337837458 -9.0958530728 0.7773626472 1
44.9993845224 121.3337837458 -9.5355552057 1.0023436459 1
46.7771605253 121.3337837458 -9.544682404 0.1587107231 1
48.5549365282 121.3337837458 -9.374315673 0.1824422978 1
50.3327125311 121.3337837458 -9.3003272301 0.5324719271 1
52.110488534 121.3337837458 -9.4051597036 0.1156135648 1
53.8882645369 121.3337837458 0 -0 0
-125.6671117544 119.5560077429 0 -0 0
-123.8893357515 119.5560077429 -10.0036398609 -0.5055456898 1
-122.1115597486 119.5560077429 -10.417366566 -0.46530096 1
-120.3337837458 119.5560077429 -10.9539789534 -0.3782131117 1
-118.5560077429 119.5560077429 -10.3858939129 -0.4900334621 1
-116.77823174 119.5560077429 -10.6694076885 -0.4163013368 1
-115.0004557371 119.5560077429 -10.7755367855 -0.461646644 1
-113.2226797342 119.5560077429 -10.86839894 -0.3322663888 1
-111.4449037313 119.5560077429 -10.4567478348 -0.1435206824 1
-109.6671277285 119.5560077429 -10.2435875173 0.0059468551 1
-107.8893517256 119.5560077429 -10.5215496538 -0.5794553759 1
-106.1115757227 119.5560077429 -11.0100674054 -0.336903017 1
-104.3337997198 119.5560077429 -11.1379097548 -0.2210460221 1
-102.5560237169 119.5560077429 -10.8846514816 -0.2394092462 1
-100.778247714 119.5560077429 -10.6967678043 0.1886511983 1
-99.0004717112 119.5560077429 -10.9192994661 -0.002222374 1
-97.2226957083 119.5560077429 -10.9143062844 0.0290226004 1
-95.4449197054 119.5560077429 -10.6501487847 -0.0513938302 1
-93.6671437025 119.5560077429 -10.3197195774 -0.05277995 1
-91.8893676996 119.5560077429 -11.1269575465 0.2147483412 1
-90.1115916967 119.5560077429 -10.9562779362 0.39869561 1
-88.3338156939 119.5560077429 -10.7906895957 0.6214413472 1
-86.556039691 119.5560077429 -10.7056988265 0.6432483918 1
-84.7782636881 119.5560077429 -10.5386448934 0.2264100768 1
-83.0004876852 119.5560077429 -10.7633001252 0.2571810783 1
-81.2227116823 119.5560077429 -10.902787743 -0.0108856231 1
-79.4449356794 119.5560077429 -11.1539381976 0.7455878543 1
-77.6671596766 119.5560077429 -10.836403628 0.5713205134 1
-75.8893836737 119.5560077429 -10.5425168645 0.7250294631 1
-74.1116076708 119.5560077429 -10.9357789706 0.608412107 1
-72.3338316679 119.5560077429 -11.0875111244 0.283554586 1
-70.556055665 119.5560077429 -11.2065735215 0.9736475283 1
-68.7782796621 119.5560077429 0 -0 0
-67.0005036592 119.5560077429 0 -0 0
-65.2227276564 119.5560077429 0 -0 0
-63.4449516535 119.5560077429 0 -0 0
-61.6671756506 119.5560077429 0 -0 0
-59.8893996477 119.5560077429 -10.1473982457 0.4925980702 1
-58.1116236448 119.5560077429 -10.8162483284 0.8323821546 1
-56.3338476419 119.5560077429 -10.8616172627 0.4468518193 1
-54.5560716391 119.5560077429 -10.4675618607 0.7273807119 1
-52.7782956362 119.5560077429 -10.5707146663 0.7920228694 1
-51.0005196333 119.5560077429 -10.9690265158 0.8757084235 1
-49.2227436304 119.5560077429 -11.0060049859 0.6035535278 1
-47.4449676275 119.5560077429 -10.4708009135 0.8741547665 1
-45.6671916246 119.5560077429 -10.7757064707 1.0533064615 1
-43.8894156218 119.5560077429 -10.9790042877 1.0523871548 1
-42.1116396189 119.5560077429 -10.7464712269 0.7642288753 1
-40.333863616 119.5560077429 -10.8238039704 0.8167295966 1
-38.5560876131 119.5560077429 -10.0520624114 0.5045934483 1
-36.7783116102 119.5560077429 -9.6777155432 0.9437399878 1
-35.0005356073 119.5560077429 -10.0043730152 0.8433207595 1
-33.2227596045 119.5560077429 -10.3545930928 0.8071226977 1
-31.4449836016 119.5560077429 -10.6346186577 1.0632656181 1
-29.6672075987 119.5560077429 -10.7805707776 1.5678576345 1
-27.8894315958 119.5560077429 -9.7405777968 1.2022685235 1
-26.1116555929 119.5560077429 -9.9822223045 0.2206364866 1
-24.33387959 119.5560077429 -10.345158027 1.4336116405 1
-22.5561035872 119.5560077429 -9.0717806959 0.3776188557 1
-20.7783275843 119.5560077429 -10.7755360696 0.3053487432 1
-19.0005515814 119.5560077429 -10.4611725356 1.2143183154 1
-17.2227755785 119.5560077429 0 -0 0
-15.4449995756 119.5560077429 -9.5211727803 1.2049763258 1
-13.6672235727 119.5560077429 -10.230732974 1.0854607191 1
-11.8894475698 119.5560077429 0 -0 0
-10.111671567 119.5560077429 -10.3727973714 1.0799749493 1
-8.3338955641 119.5560077429 -10.1153356324 1.6285003781 1
-6.5561195612 119.5560077429 -10.5148037751 0.7789191682 1
-4.7783435583 119.5560077429 -9.4419906837 0.6346868106 1
-3.0005675554 119.5560077429 -8.7013172543 0.3684171965 1
-1.2227915525 119.5560077429 -9.0826963897 0.71434288 1
0.5549844503 119.5560077429 -9.7834143416 0.8360407664 1
2.3327604532 119.5560077429 -9.7418622488 0.4897570973 1
4.1105364561 119.5560077429 -9.8901598897 1.3412900441 1
5.888312459 119.5560077429 -9.5849743879 0.8699248098 1
7.6660884619 119.5560077429 -9.7111270458 0.9356953376 1
9.4438644648 119.5560077429 -10.1157508956 1.1240043018 1
11.2216404676 119.5560077429 -10.1705169492 1.799114835 1
12.9994164705 119.5560077429 0 -0 0
14.7771924734 119.5560077429 0 -0 0
16.5549684763 119.5560077429 0 -0 0
18.3327444792 119.5560077429 0 -0 0
20.1105204821 119.5560077429 0 -0 0
21.8882964849 119.5560077429 0 -0 0
23.6660724878 119.5560077429 0 -0 0
25.4438484907 119.5560077429 0 -0 0
27.2216244936 119.5560077429 0 -0 0
28.9994004965 119.5560077429 0 -0 0
30.7771764994 119.5560077429 0 -0 0
32.5549525023 119.5560077429 0 -0 0
34.3327285051 119.5560077429 0 -0 0
36.110504508 119.5560077429 -9.9464552573 0.5004021541 1
37.8882805109 119.5560077429 -10.1033130474 0.3372466831 1
39.6660565138 119.5560077429 -9.7500228862 1.0821228623 1
41.4438325167 119.5560077429 -9.5056190263 0.5995755929 1
43.2216085196 119.5560077429 -9.32215289 0.6897993942 1
44.9993845224 119.5560077429 -8.6252854301 1.1530884757 1
46.7771605253 119.5560077429 -9.50621901 0.3823800629 1
48.5549365282 119.5560077429 -9.3368131122 0.3452311917 1
50.3327125311 119.5560077429 -8.9205805086 -0.0365073612 1
52.110488534 119.5560077429 -9.4623199642 0.6074741849 1
53.8882645369 119.5560077429 0 -0 0
-125.6671117544 117.77823174 0 -0 0
-123.8893357515 117.77823174 -10.0170571574 -0.3156630214 1
-122.1115597486 117.77823174 -10.7115490255 -0.4008778896 1
-120.3337837458 117.77823174 -10.7369552564 -0.327966267 1
-118.5560077429 117.77823174 -10.1302306931 -0.3518539234 1
-116.77823174 117.77823174 -9.7717067839 -0.2643135814 1
-115.0004557371 117.77823174 -11.0056799351 -0.4464523075 1
-113.2226797342 117.77823174 -10.8761772489 -0.2799532519 1
-111.4449037313 117.77823174 -10.7345947 -0.2284548899 1
-109.6671277285 117.77823174 -10.387026579 -0.2696890917 1
-107.8893517256 117.77823174 -10.5011222853 -0.5022092649 1
-106.1115757227 117.77823174 -10.6917080372 -0.1472780982 1
-104.3337997198 117.77823174 -10.8486109335 -0.3132845657 1
-102.5560237169 117.77823174 -11.1408953539 -0.2973184125 1
-100.778247714 117.77823174 -10.948012767 -0.2502862776 1
-99.0004717112 117.77823174 -10.8153390453 -0.0789171873 1
-97.2226957083 117.77823174 -10.7422656133 -0.1763837512 1
-95.4449197054 117.77823174 -10.6994534115 -0.1515767881 1
-93.6671437025 117.77823174 -10.7341379105 -0.3888782156 1
-91.8893676996 117.77823174 -10.9943425343 0.009800211 1
-90.1115916967 117.77823174 -10.9782210154 -0.2119288474 1
-88.3338156939 117.77823174 -11.0175800891 0.0397263668 1
-86.556039691 117.77823174 -11.5739103177 -0.7252714613 1
-84.7782636881 117.77823174 -10.3428296893 0.330164298 1
-83.0004876852 117.77823174 -11.0570973923 -0.3001393382 1
-81.2227116823 117.77823174 -11.5397692407 0.1836494249 1
-79.4449356794 117.77823174 -11.0880065763 0.2950745594 1
-77.6671596766 117.77823174 -10.8515435507 0.6039143771 1
-75.8893836737 117.77823174 -10.7704820303 0.3597482196 1
-74.1116076708 117.77823174 -11.0061589197 0.6350390684 1
-72.3338316679 117.77823174 -11.0177476263 0.5002160017 1
-70.556055665 117.77823174 -11.0648399027 0.8447469737 1
-68.7782796621 117.77823174 0 -0 0
-67.0005036592 117.77823174 0 -0 0
-65.2227276564 117.77823174 0 -0 0
-63.4449516535 117.77823174 0 -0 0
-61.6671756506 117.77823174 0 -0 0
-59.8893996477 117.77823174 -10.0489436418 0.7863423555 1
-58.1116236448 117.77823174 -10.3171606971 0.8495396836 1
-56.3338476419 117.77823174 -10.4515212465 0.4109172349 1
-54.5560716391 117.77823174 -11.1284238551 0.6105471325 1
-52.7782956362 117.77823174 -10.7798068366 0.9773677136 1
-51.0005196333 117.77823174 -11.0220284169 0.6706700811 1
-49.2227436304 117.77823174 -10.5685037479 0.6635103711 1
-47.4449676275 117.77823174 -11.0329577142 0.6292826615 1
-45.6671916246 117.77823174 -10.0493288342 0.5711959345 1
-43.8894156218 117.77823174 -11.4837731489 0.773245814 1
-42.1116396189 117.77823174 -11.0162190282 1.0269773441 1
-40.333863616 117.77823174 -10.5507419393 0.7945001291 1
-38.5560876131 117.77823174 -10.2545719444 1.292585401 1
-36.7783116102 117.77823174 -10.3780955568 1.2401190463 1
-35.0005356073 117.77823174 -10.394753338 1.0094045519 1
-33.2227596045 117.77823174 -9.8350516019 0.6298683258 1
-31.4449836016 117.77823174 0 -0 0
-29.6672075987 117.77823174 -11.0164681861 1.0674067944 1
-27.8894315958 117.77823174 -9.8993830281 0.9823064815 1
-26.1116555929 117.77823174 -10.0208131413 0.7513915153 1
-24.33387959 117.77823174 -10.2188406957 1.5606091441 1
-22.5561035872 117.77823174 0 -0 0
-20.7783275843 117.77823174 -10.8959122735 0.8413776142 1
-19.0005515814 117.77823174 -10.3214035412 1.1757532536 1
-17.2227755785 117.77823174 -10.7942300723 1.3522272171 1
-15.4449995756 117.77823174 -9.7848978335 1.0385760742 1
-13.6672235727 117.77823174 -10.1313404481 1.151920011 1
-11.8894475698 117.77823174 0 -0 0
-10.111671567 117.77823174 0 -0 0
-8.3338955641 117.77823174 -10.0822434529 1.6732313821 1
-6.5561195612 117.77823174 -10.5790063264 1.4102910331 1
-4.7783435583 117.77823174 -9.5479429359 0.1698855984 1
-3.0005675554 117.77823174 -9.9316489771 1.102669798 1
-1.2227915525 117.77823174 -9.4615152128 1.131799794 1
0.5549844503 117.77823174 0 -0 0
2.3327604532 117.77823174 -9.6677764338 0.6993905417 1
4.1105364561 117.77823174 -9.5185895569 1.2422812787 1