TITLE = "B00085"
VARIABLES = "x", "y", "Vx", "Vy", "isValid"
ZONE T="Frame 0", I=102, J=78, F=POINT
-125.6671117544 126.6671117544 0 -0 0
-123.8893357515 126.6671117544 0 -0 0
-122.1115597486 126.6671117544 0 -0 0
-120.3337837458 126.6671117544 0 -0 0
-118.5560077429 126.6671117544 0 -0 0
-116.77823174 126.6671117544 0 -0 0
-115.0004557371 126.6671117544 0 -0 0
-113.2226797342 126.6671117544 0 -0 0
-111.4449037313 126.6671117544 0 -0 0
-109.6671277285 126.6671117544 0 -0 0
-107.8893517256 126.6671117544 0 -0 0
-106.1115757227 126.6671117544 0 -0 0
-104.3337997198 126.6671117544 0 -0 0
-102.5560237169 126.6671117544 0 -0 0
-100.778247714 126.6671117544 0 -0 0
-99.0004717112 126.6671117544 0 -0 0
-97.2226957083 126.6671117544 0 -0 0
-95.4449197054 126.6671117544 0 -0 0
-93.6671437025 126.6671117544 0 -0 0
-91.8893676996 126.6671117544 0 -0 0
-90.1115916967 126.6671117544 0 -0 0
-88.3338156939 126.6671117544 0 -0 0
-86.556039691 126.6671117544 0 -0 0
-84.7782636881 126.6671117544 0 -0 0
-83.0004876852 126.6671117544 0 -0 0
-81.2227116823 126.6671117544 0 -0 0
-79.4449356794 126.6671117544 0 -0 0
-77.6671596766 126.6671117544 0 -0 0
-75.8893836737 126.6671117544 0 -0 0
-74.1116076708 126.6671117544 0 -0 0
-72.3338316679 126.6671117544 0 -0 0
-70.556055665 126.6671117544 0 -0 0
-68.7782796621 126.6671117544 0 -0 0
-67.0005036592 126.6671117544 0 -0 0
-65.2227276564 126.6671117544 0 -0 0
-63.4449516535 126.6671117544 0 -0 0
-61.6671756506 126.6671117544 0 -0 0
-59.8893996477 126.6671117544 0 -0 0
-58.1116236448 126.6671117544 0 -0 0
-56.3338476419 126.6671117544 0 -0 0
-54.5560716391 126.6671117544 0 -0 0
-52.7782956362 126.6671117544 0 -0 0
-51.0005196333 126.6671117544 0 -0 0
-49.2227436304 126.6671117544 0 -0 0
-47.4449676275 126.6671117544 0 -0 0
-45.6671916246 126.6671117544 0 -0 0
-43.8894156218 126.6671117544 0 -0 0
-42.1116396189 126.6671117544 0 -0 0
-40.333863616 126.6671117544 0 -0 0
-38.5560876131 126.6671117544 0 -0 0
-36.7783116102 126.6671117544 0 -0 0
-35.0005356073 126.6671117544 0 -0 0
-33.2227596045 126.6671117544 0 -0 0
-31.4449836016 126.6671117544 0 -0 0
-29.6672075987 126.6671117544 0 -0 0
-27.8894315958 126.6671117544 0 -0 0
-26.1116555929 126.6671117544 0 -0 0
-24.33387959 126.6671117544 0 -0 0
-22.5561035872 126.6671117544 0 -0 0
-20.7783275843 126.6671117544 0 -0 0
-19.0005515814 126.6671117544 0 -0 0
-17.2227755785 126.6671117544 0 -0 0
-15.4449995756 126.6671117544 0 -0 0
-13.6672235727 126.6671117544 0 -0 0
-11.8894475698 126.6671117544 0 -0 0
-10.111671567 126.6671117544 0 -0 0
-8.3338955641 126.6671117544 0 -0 0
-6.5561195612 126.6671117544 0 -0 0
-4.7783435583 126.6671117544 0 -0 0
-3.0005675554 126.6671117544 0 -0 0
-1.2227915525 126.6671117544 0 -0 0
0.5549844503 126.6671117544 0 -0 0
2.3327604532 126.6671117544 0 -0 0
4.1105364561 126.6671117544 0 -0 0
5.888312459 126.6671117544 0 -0 0
7.6660884619 126.6671117544 0 -0 0
9.4438644648 126.6671117544 0 -0 0
11.2216404676 126.6671117544 0 -0 0
12.9994164705 126.6671117544 0 -0 0
14.7771924734 126.6671117544 0 -0 0
16.5549684763 126.6671117544 0 -0 0
18.3327444792 126.6671117544 0 -0 0
20.1105204821 126.6671117544 0 -0 0
21.8882964849 126.6671117544 0 -0 0
23.6660724878 126.6671117544 0 -0 0
25.4438484907 126.6671117544 0 -0 0
27.2216244936 126.6671117544 0 -0 0
28.9994004965 126.6671117544 0 -0 0
30.7771764994 126.6671117544 0 -0 0
32.5549525023 126.6671117544 0 -0 0
34.3327285051 126.6671117544 0 -0 0
36.110504508 126.6671117544 0 -0 0
37.8882805109 126.6671117544 0 -0 0
39.6660565138 126.6671117544 0 -0 0
41.4438325167 126.6671117544 0 -0 0
43.2216085196 126.6671117544 0 -0 0
44.9993845224 126.6671117544 0 -0 0
46.7771605253 126.6671117544 0 -0 0
48.5549365282 126.6671117544 0 -0 0
50.3327125311 126.6671117544 0 -0 0
52.110488534 126.6671117544 0 -0 0
53.8882645369 126.6671117544 0 -0 0
-125.6671117544 124.8893357515 0 -0 0
-123.8893357515 124.8893357515 -10.1055798116 -0.6855293431 1
-122.1115597486 124.8893357515 -10.7385661911 -0.4884540301 1
-120.3337837458 124.8893357515 -10.3815350814 -0.4802461386 1
-118.5560077429 124.8893357515 -9.7538003492 -0.6096893992 1
-116.77823174 124.8893357515 -10.3288496396 -0.5443255429 1
-115.0004557371 124.8893357515 -10.2184282964 -0.3257897152 1
-113.2226797342 124.8893357515 -10.2660475275 -0.2563190492 1
-111.4449037313 124.8893357515 -10.5783419054 -0.4576200231 1
-109.6671277285 124.8893357515 -10.1902820446 0.0616508307 1
-107.8893517256 124.8893357515 -10.3380742099 -0.0204696108 1
-106.1115757227 124.8893357515 -10.1310941541 -0.1013528545 1
-104.3337997198 124.8893357515 -10.3140748621 -0.5452491455 1
-102.5560237169 124.8893357515 -10.3255089189 -0.602584103 1
-100.778247714 124.8893357515 -10.0438616796 -0.4765660477 1
-99.0004717112 124.8893357515 -10.6294407555 -0.3968784756 1
-97.2226957083 124.8893357515 -10.6079544658 -0.0672568836 1
-95.4449197054 124.8893357515 -10.8768989477 -0.1377342048 1
-93.6671437025 124.8893357515 -10.6625293552 -0.3660917227 1
-91.8893676996 124.8893357515 -10.3581128062 -0.1638184602 1
-90.1115916967 124.8893357515 -11.0136472604 -0.1088232959 1
-88.3338156939 124.8893357515 -10.6824906266 0.0859451586 1
-86.556039691 124.8893357515 -10.7792082848 0.2839583937 1
-84.7782636881 124.8893357515 -10.595581771 -0.0077067118 1
-83.0004876852 124.8893357515 -10.8998085876 0.3896471685 1
-81.2227116823 124.8893357515 -10.806629974 -0.019873923 1
-79.4449356794 124.8893357515 -10.7846510964 -0.0124879661 1
-77.6671596766 124.8893357515 -11.0203172462 0.4935975658 1
-75.8893836737 124.8893357515 -10.6677316004 -0.0110903908 1
-74.1116076708 124.8893357515 -10.9088462896 -0.0364543793 1
-72.3338316679 124.8893357515 -10.2828284558 0.4048157301 1
-70.556055665 124.8893357515 -10.5374098434 0.5285799087 1
-68.7782796621 124.8893357515 0 -0 0
-67.0005036592 124.8893357515 0 -0 0
-65.2227276564 124.8893357515 0 -0 0
-63.4449516535 124.8893357515 0 -0 0
-61.6671756506 124.8893357515 0 -0 0
-59.8893996477 124.8893357515 0 -0 0
-58.1116236448 124.8893357515 -10.7045668763 0.6585372365 1
-56.3338476419 124.8893357515 -10.5975628628 0.8381371294 1
-54.5560716391 124.8893357515 -10.4898915642 0.9252879832 1
-52.7782956362 124.8893357515 -10.8564429403 0.3692806575 1
-51.0005196333 124.8893357515 -11.0264094434 0.6734781193 1
-49.2227436304 124.8893357515 -11.2776264833 0.7166125081 1
-47.4449676275 124.8893357515 -10.8272298916 0.2561686953 1
-45.6671916246 124.8893357515 -10.6288808662 0.5407471199 1
-43.8894156218 124.8893357515 -11.0881032324 1.246421023 1
-42.1116396189 124.8893357515 -10.5563179215 1.0259549375 1
-40.333863616 124.8893357515 -10.3684471316 0.8586611541 1
-38.5560876131 124.8893357515 -10.3235342709 0.8595804608 1
-36.7783116102 124.8893357515 -10.3978320133 0.7784981772 1
-35.0005356073 124.8893357515 -9.6241064987 0.9677851578 1
-33.2227596045 124.8893357515 -11.3165051405 1.3428336776 1
-31.4449836016 124.8893357515 -9.5672541057 0.7210987823 1
-29.6672075987 124.8893357515 -10.4796990011 0.835407848 1
-27.8894315958 124.8893357515 -10.2968128013 1.2823284005 1
-26.1116555929 124.8893357515 -9.8981200552 0.938944414 1
-24.33387959 124.8893357515 -9.8863724031 1.3560905966 1
-22.5561035872 124.8893357515 -10.6460584423 0.1270519175 1
-20.7783275843 124.8893357515 0 -0 0
-19.0005515814 124.8893357515 -10.3746216655 0.9127871296 1
-17.2227755785 124.8893357515 -9.8560467355 0.9955791519 1
-15.4449995756 124.8893357515 -9.5244433358 0.6626397503 1
-13.6672235727 124.8893357515 -10.2357562265 0.5407313685 1
-11.8894475698 124.8893357515 -9.6512231843 0.7068223206 1
-10.111671567 124.8893357515 -10.2942682404 0.9078297464 1
-8.3338955641 124.8893357515 -9.572231536 0.1432801161 1
-6.5561195612 124.8893357515 -9.467337489 0.5715567839 1
-4.7783435583 124.8893357515 -9.9888135335 0.8542565005 1
-3.0005675554 124.8893357515 -9.8655591262 0.9677235843 1
-1.2227915525 124.8893357515 -9.8315891662 0.3767067087 1
0.5549844503 124.8893357515 -9.4728604893 0.8542020867 1
2.3327604532 124.8893357515 -9.456029443 0.7329466704 1
4.1105364561 124.8893357515 -10.1097983127 0.9433547954 1
5.888312459 124.8893357515 -9.6420430042 0.9163426416 1
7.6660884619 124.8893357515 -9.5312837227 0.5587824293 1
9.4438644648 124.8893357515 -9.0570660599 0.4932982899 1
11.2216404676 124.8893357515 0 -0 0
12.9994164705 124.8893357515 0 -0 0
14.7771924734 124.8893357515 0 -0 0
16.5549684763 124.8893357515 0 -0 0
18.3327444792 124.8893357515 0 -0 0
20.1105204821 124.8893357515 0 -0 0
21.8882964849 124.8893357515 0 -0 0
23.6660724878 124.8893357515 0 -0 0
25.4438484907 124.8893357515 0 -0 0
27.2216244936 124.8893357515 0 -0 0
28.9994004965 124.8893357515 0 -0 0
30.7771764994 124.8893357515 0 -0 0
32.5549525023 124.8893357515 0 -0 0
34.3327285051 124.8893357515 0 -0 0
36.110504508 124.8893357515 -8.9310265254 0.6081371741 1
37.8882805109 124.8893357515 -9.063359445 0.3547994281 1
39.6660565138 124.8893357515 -8.6350856412 0.2240473725 1
41.4438325167 124.8893357515 0 -0 0
43.2216085196 124.8893357515 -9.103055741 0.1560888373 1
44.9993845224 124.8893357515 -9.2017709583 0.458882996 1
46.7771605253 124.8893357515 -8.9145148023 0.4568009523 1
48.5549365282 124.8893357515 -9.4083371829 0.7197183902 1
50.3327125311 124.8893357515 -9.0034727668 0.8893891974 1
52.110488534 124.8893357515 -9.0821064296 1.2059214075 1
53.8882645369 124.8893357515 0 -0 0
-125.6671117544 123.1115597486 0 -0 0
-123.8893357515 123.1115597486 -10.4264593977 -0.5178031133 1
-122.1115597486 123.1115597486 -10.5865089865 -0.3698505704 1
-120.3337837458 123.1115597486 -10.862694799 -0.5049958241 1
-118.5560077429 123.1115597486 -10.1598375258 -0.433725207 1
-116.77823174 123.1115597486 -10.3606731185 -0.4050620241 1
-115.0004557371 123.1115597486 -10.2683672735 -0.3936952685 1
-113.2226797342 123.1115597486 -10.3798568454 -0.3756757104 1
-111.4449037313 123.1115597486 -10.4383817467 -0.5191734818 1
-109.6671277285 123.1115597486 -10.1936986582 -0.3677184088 1
-107.8893517256 123.1115597486 -10.3146791416 -0.2360799811 1
-106.1115757227 123.1115597486 -10.4339699335 -0.3882324098 1
-104.3337997198 123.1115597486 -10.3215367118 -0.3220437549 1
-102.5560237169 123.1115597486 -10.1313132412 -0.5529229227 1
-100.778247714 123.1115597486 -10.8396555683 -0.3473862644 1
-99.0004717112 123.1115597486 -10.7444342894 -0.3414623203 1
-97.2226957083 123.1115597486 -10.8598710094 -0.2207209712 1
-95.4449197054 123.1115597486 -10.9843468632 0.1260366706 1
-93.6671437025 123.1115597486 -10.8940765238 -0.4060142655 1
-91.8893676996 123.1115597486 -10.9792849483 0.0473915523 1
-90.1115916967 123.1115597486 -10.8178313403 0.2412807944 1
-88.3338156939 123.1115597486 -10.7703545875 0.2097394081 1
-86.556039691 123.1115597486 -10.5319247896 0.379809727 1
-84.7782636881 123.1115597486 -10.7916941031 0.112942993 1
-83.0004876852 123.1115597486 -10.8404295329 0.3214552268 1
-81.2227116823 123.1115597486 -11.0301067176 0.0487762402 1
-79.4449356794 123.1115597486 -11.0479365434 -0.4265440179 1
-77.6671596766 123.1115597486 -10.8277697337 0.1746954916 1
-75.8893836737 123.1115597486 -10.6528931015 0.250695813 1
-74.1116076708 123.1115597486 -10.6738982586 0.134864593 1
-72.3338316679 123.1115597486 -10.8322824989 0.0113638917 1
-70.556055665 123.1115597486 -10.9300447589 0.1454036861 1
-68.7782796621 123.1115597486 0 -0 0
-67.0005036592 123.1115597486 0 -0 0
-65.2227276564 123.1115597486 0 -0 0
-63.4449516535 123.1115597486 0 -0 0
-61.6671756506 123.1115597486 0 -0 0
-59.8893996477 123.1115597486 0 -0 0
-58.1116236448 123.1115597486 -10.4256904448 0.4316875536 1
-56.3338476419 123.1115597486 -10.9801362378 1.461988435 1
-54.5560716391 123.1115597486 -10.8665531667 0.6487900074 1
-52.7782956362 123.1115597486 -10.4324535069 0.4556897653 1
-51.0005196333 123.1115597486 -10.2174688953 0.886632709 1
-49.2227436304 123.1115597486 -10.7099889247 0.6714232825 1
-47.4449676275 123.1115597486 -10.8444983961 0.5985789613 1
-45.6671916246 123.1115597486 -10.4019688937 0.6646816996 1
-43.8894156218 123.1115597486 -10.8770450057 1.1971980169 1
-42.1116396189 123.1115597486 -9.9990533507 1.349933246 1
-40.333863616 123.1115597486 -10.9643454974 0.9089924833 1
-38.5560876131 123.1115597486 -10.893777248 0.6416732556 1
-36.7783116102 123.1115597486 -9.6108954019 1.1471373247 1
-35.0005356073 123.1115597486 -9.7720375625 0.528227651 1
-33.2227596045 123.1115597486 -11.0690490962 0.9421147336 1
-31.4449836016 123.1115597486 -9.8219507646 0.3959004592 1
-29.6672075987 123.1115597486 -10.7947498673 1.1698851553 1
-27.8894315958 123.1115597486 -10.755430172 0.8755895723 1
-26.1116555929 123.1115597486 -11.0979113191 0.5962377361 1
-24.33387959 123.1115597486 -10.0562078835 0.9919463151 1
-22.5561035872 123.1115597486 0 -0 0
-20.7783275843 123.1115597486 -10.3710632896 0.9394599131 1
-19.0005515814 123.1115597486 -10.3676896343 0.5397791271 1
-17.2227755785 123.1115597486 -9.6560001428 0.7440227417 1
-15.4449995756 123.1115597486 -9.8353293987 1.0697924097 1
-13.6672235727 123.1115597486 -10.0589529163 0.6916093689 1
-11.8894475698 123.1115597486 -10.3665727195 0.8080921225 1
-10.111671567 123.1115597486 -9.8211130785 1.1841401378 1
-8.3338955641 123.1115597486 -9.7521707992 0.8485201409 1
-6.5561195612 123.1115597486 -10.5646196052 0.5571142169 1
-4.7783435583 123.1115597486 -10.0943734335 0.2546565646 1
-3.0005675554 123.1115597486 -10.2492995339 1.077983118 1
-1.2227915525 123.1115597486 -10.2636533205 1.4187695617 1
0.5549844503 123.1115597486 -9.897780685 1.3596174697 1
2.3327604532 123.1115597486 -9.6564769795 0.9871278302 1
4.1105364561 123.1115597486 -9.9082453171 0.7946891454 1
5.888312459 123.1115597486 -9.7127408444 0.9703282868 1
7.6660884619 123.1115597486 -9.0956110746 0.8059928955 1
9.4438644648 123.1115597486 -10.2682111919 1.0213269009 1
11.2216404676 123.1115597486 -8.6626233177 0.4460370443 1
12.9994164705 123.1115597486 0 -0 0
14.7771924734 123.1115597486 0 -0 0
16.5549684763 123.1115597486 0 -0 0
18.3327444792 123.1115597486 0 -0 0
20.1105204821 123.1115597486 0 -0 0
21.8882964849 123.1115597486 0 -0 0
23.6660724878 123.1115597486 0 -0 0
25.4438484907 123.1115597486 0 -0 0
27.2216244936 123.1115597486 0 -0 0
28.9994004965 123.1115597486 0 -0 0
30.7771764994 123.1115597486 0 -0 0
32.5549525023 123.1115597486 0 -0 0
34.3327285051 123.1115597486 0 -0 0
36.110504508 123.1115597486 -9.2796628752 0.3625877606 1
37.8882805109 123.1115597486 -9.2328698746 -0.3352419643 1
39.6660565138 123.1115597486 -9.1246923846 -0.5042254393 1
41.4438325167 123.1115597486 -9.1361679677 0.145604158 1
43.2216085196 123.1115597486 -9.0126586747 -0.9012528368 1
44.9993845224 123.1115597486 -9.1627104446 -0.6979084817 1
46.7771605253 123.1115597486 -8.583865076 -0.0018185663 1
48.5549365282 123.1115597486 -9.9206974847 0.5282061719 1
50.3327125311 123.1115597486 -8.7707578495 0.6613595942 1
52.110488534 123.1115597486 -8.567397743 0.8589890688 1
53.8882645369 123.1115597486 0 -0 0
-125.6671117544 121.3337837458 0 -0 0
-123.8893357515 121.3337837458 -10.0295565791 -0.4790490351 1
-122.1115597486 121.3337837458 -10.2308876237 -0.1997458849 1
-120.3337837458 121.3337837458 -10.5297511016 -0.5570512114 1
-118.5560077429 121.3337837458 -10.6335826477 -0.4138369646 1
-116.77823174 121.3337837458 -10.3378680103 -0.5669487945 1
-115.0004557371 121.3337837458 -10.2809125174 -0.3490201102 1
-113.2226797342 121.3337837458 -10.2438724738 -0.5921953638 1
-111.4449037313 121.3337837458 -10.1272150232 -0.2954640476 1
-109.6671277285 121.3337837458 -10.3512036861 -0.3083973477 1
-107.8893517256 121.3337837458 -10.2626824638 -0.3825776709 1
-106.1115757227 121.3337837458 -10.6790374985 -0.6417362611 1
-104.3337997198 121.3337837458 -10.5559126819 -0.2597585739 1
-102.5560237169 121.3337837458 -10.181063202 -0.4589159306 1
-100.778247714 121.3337837458 -11.1676991602 -0.0919292442 1
-99.0004717112 121.3337837458 -10.9371915814 -0.1761045225 1
-97.2226957083 121.3337837458 -11.1599194193 -0.2382823079 1
-95.4449197054 121.3337837458 -10.9494898152 -0.3990106372 1
-93.6671437025 121.3337837458 -10.8633756874 -0.2618449134 1
-91.8893676996 121.3337837458 -11.0530736353 -0.2460219543 1
-90.1115916967 121.3337837458 -10.9477650411 -0.2932044431 1
-88.3338156939 121.3337837458 -10.917524574 0.0664879308 1
-86.556039691 121.3337837458 -10.9167663607 0.0656216059 1
-84.7782636881 121.3337837458 -10.9856484985 -0.0547087759 1
-83.0004876852 121.3337837458 -10.8669433709 0.2545305537 1
-81.2227116823 121.3337837458 -11.2716552852 0.1518416973 1
-79.4449356794 121.3337837458 -11.1726336323 -0.2718813949 1
-77.6671596766 121.3337837458 -10.5237333654 -0.1576782929 1
-75.8893836737 121.3337837458 -10.9571199181 0.1184631294 1
-74.1116076708 121.3337837458 -10.676901041 0.3841714223 1
-72.3338316679 121.3337837458 -10.6185773275 0.0562180428 1
-70.556055665 121.3337837458 -10.8563455682 -0.1007127764 1
-68.7782796621 121.3337837458 0 -0 0
-67.0005036592 121.3337837458 0 -0 0
-65.2227276564 121.3337837458 0 -0 0
-63.4449516535 121.3337837458 0 -0 0
-61.6671756506 121.3337837458 0 -0 0
-59.8893996477 121.3337837458 0 -0 0
-58.1116236448 121.3337837458 -10.3854442831 0.6487298658 1
-56.3338476419 121.3337837458 -10.7410699417 0.9063777572 1
-54.5560716391 121.3337837458 -10.7340161954 0.788477381 1
-52.7782956362 121.3337837458 -10.4535503083 0.566219936 1
-51.0005196333 121.3337837458 -10.4265138115 0.8566206367 1
-49.2227436304 121.3337837458 -11.4503895692 0.9832229244 1
-47.4449676275 121.3337837458 -10.5032157845 1.078501481 1
-45.6671916246 121.3337837458 -10.0458477832 0.9817594797 1
-43.8894156218 121.3337837458 -10.9965806597 1.4858732275 1
-42.1116396189 121.3337837458 -10.0351497445 1.3096541496 1
-40.333863616 121.3337837458 -10.6263334414 0.8075551442 1
-38.5560876131 121.3337837458 -10.7780577194 0.3311466102 1
-36.7783116102 121.3337837458 0 -0 0
-35.0005356073 121.3337837458 -10.3834610434 0.6640000952 1
-33.2227596045 121.3337837458 -10.7125012669 1.165794097 1
-31.4449836016 121.3337837458 -10.8527485299 1.0534897501 1
-29.6672075987 121.3337837458 0 -0 0
-27.8894315958 121.3337837458 -10.6474560177 0.6587835305 1
-26.1116555929 121.3337837458 0 -0 0
-24.33387959 121.3337837458 -10.72763403 0.4994384572 1
-22.5561035872 121.3337837458 -10.657052177 0.9002504774 1
-20.7783275843 121.3337837458 -9.9398611644 1.034211515 1
-19.0005515814 121.3337837458 -8.8911999227 0.4966633536 1
-17.2227755785 121.3337837458 -9.9483898109 0.3304320711 1
-15.4449995756 121.3337837458 -9.6491468684 0.6526791618 1
-13.6672235727 121.3337837458 -9.6540541336 0.3044824183 1
-11.8894475698 121.3337837458 -9.813102795 1.4009275644 1
-10.111671567 121.3337837458 -8.7351411562 0.7394190482 1
-8.3338955641 121.3337837458 -10.0137035493 1.4014817259 1
-6.5561195612 121.3337837458 -10.5262020334 0.540028285 1
-4.7783435583 121.3337837458 -10.0116143459 0.0148950606 1
-3.0005675554 121.3337837458 -9.6046621584 1.5100100418 1
-1.2227915525 121.3337837458 -9.8112355427 2.0249449752 1
0.5549844503 121.3337837458 -10.1117328664 1.3702925973 1
2.3327604532 121.3337837458 -10.2379470978 0.8999540654 1
4.1105364561 121.3337837458 -9.1075191042 0.9559086309 1
5.888312459 121.3337837458 -9.7592717996 1.5724513045 1
7.6660884619 121.3337837458 -8.8874052764 0.9238474496 1
9.4438644648 121.3337837458 -8.7864791406 1.2259242053 1
11.2216404676 121.3337837458 -9.215060812 0.7019164874 1
12.9994164705 121.3337837458 0 -0 0
14.7771924734 121.3337837458 0 -0 0
16.5549684763 121.3337837458 0 -0 0
18.3327444792 121.3337837458 0 -0 0
20.1105204821 121.3337837458 0 -0 0
21.8882964849 121.3337837458 0 -0 0
23.6660724878 121.3337837458 0 -0 0
25.4438484907 121.3337837458 0 -0 0
27.2216244936 121.3337837458 0 -0 0
28.9994004965 121.3337837458 0 -0 0
30.7771764994 121.3337837458 0 -0 0
32.5549525023 121.3337837458 0 -0 0
34.3327285051 121.3337837458 0 -0 0
36.110504508 121.3337837458 -9.5676607772 0.0321155951 1
37.8882805109 121.3337837458 -9.1468932133 -0.6845026407 1
39.6660565138 121.3337837458 -9.3425795426 -0.1737890723 1
41.4438325167 121.3337837458 -8.6029399753 0.1671706364 1
43.2216085196 121.3337837458 -9.269224018 -0.0458321675 1
44.9993845224 121.3337837458 -9.6848351588 -0.2663856015 1
46.7771605253 121.3337837458 -9.4728518976 -0.0965701682 1
48.5549365282 121.3337837458 -9.4003039883 -0.5896135724 1
50.3327125311 121.3337837458 -8.7758226283 0.3862692173 1
52.110488534 121.3337837458 0 -0 0
53.8882645369 121.3337837458 0 -0 0
-125.6671117544 119.5560077429 0 -0 0
-123.8893357515 119.5560077429 -9.8064986785 -0.5427074485 1
-122.1115597486 119.5560077429 -10.1951162807 -0.4611053699 1
-120.3337837458 119.5560077429 -10.375571043 -0.5951236852 1
-118.5560077429 119.5560077429 -10.2429975572 -0.4379766428 1
-116.77823174 119.5560077429 -10.3681048975 -0.6197688389 1
-115.0004557371 119.5560077429 -10.5879344848 -0.4339800927 1
-113.2226797342 119.5560077429 -10.0545439669 -0.4873013168 1
-111.4449037313 119.5560077429 -10.0888733443 -0.2563548478 1
-109.6671277285 119.5560077429 -10.6286281284 -0.1666236345 1
-107.8893517256 119.5560077429 -10.4662502019 -0.3761668665 1
-106.1115757227 119.5560077429 -10.5423142447 -0.4060686793 1
-104.3337997198 119.5560077429 -10.7456177895 -0.5096038134 1
-102.5560237169 119.5560077429 -10.7756205542 -0.6063143119 1
-100.778247714 119.5560077429 -10.9195364525 -0.0720796643 1
-99.0004717112 119.5560077429 -10.7143062298 -0.0597821464 1
-97.2226957083 119.5560077429 -10.9387380787 -0.3993743505 1
-95.4449197054 119.5560077429 -10.9236640253 -0.3407320299 1
-93.6671437025 119.5560077429 -10.5395964188 0.3448989811 1
-91.8893676996 119.5560077429 -11.1588340073 0.3705679733 1
-90.1115916967 119.5560077429 -11.0645098401 -0.4268604771 1
-88.3338156939 119.5560077429 -10.5379117391 -0.1126437171 1
-86.556039691 119.5560077429 -11.23302507 0.2337258684 1
-84.7782636881 119.5560077429 -10.9631054357 -0.1329056964 1
-83.0004876852 119.5560077429 -11.2007541092 -0.3485375457 1
-81.2227116823 119.5560077429 -11.4869656636 0.4831630044 1
-79.4449356794 119.5560077429 -11.2796970714 -0.1298642516 1
-77.6671596766 119.5560077429 -10.2999659376 0.0540457868 1
-75.8893836737 119.5560077429 -10.9588604436 0.4922372209 1
-74.1116076708 119.5560077429 -10.8103938336 0.3847169922 1
-72.3338316679 119.5560077429 -10.7461440282 0.1519075667 1
-70.556055665 119.5560077429 -10.5055025959 -0.3944198312 1
-68.7782796621 119.5560077429 0 -0 0
-67.0005036592 119.5560077429 0 -0 0
-65.2227276564 119.5560077429 0 -0 0
-63.4449516535 119.5560077429 0 -0 0
-61.6671756506 119.5560077429 0 -0 0
-59.8893996477 119.5560077429 -10.815616842 0.1287387452 1
-58.1116236448 119.5560077429 -10.5339431118 1.0455066735 1
-56.3338476419 119.5560077429 -10.8204338949 0.9744680311 1
-54.5560716391 119.5560077429 -10.9057296678 1.1229761674 1
-52.7782956362 119.5560077429 -10.8534251225 0.6050083808 1
-51.0005196333 119.5560077429 -10.0168667091 0.9206814258 1
-49.2227436304 119.5560077429 -11.4772162865 0.4685858349 1
-47.4449676275 119.5560077429 -10.5202845331 1.271626066 1
-45.6671916246 119.5560077429 -10.0998520436 1.2305264669 1
-43.8894156218 119.5560077429 -10.3528948096 0.8354150077 1
-42.1116396189 119.5560077429 -10.0998563394 1.1774773117 1
-40.333863616 119.5560077429 -10.3703057923 1.0122698678 1
-38.5560876131 119.5560077429 -10.3085432701 1.5282873494 1
-36.7783116102 119.5560077429 0 -0 0
-35.0005356073 119.5560077429 -10.1933206255 0.6775505623 1
-33.2227596045 119.5560077429 -10.8841359825 1.1280953601 1
-31.4449836016 119.5560077429 -10.3813102665 1.744260001 1
-29.6672075987 119.5560077429 -10.1119791604 0.7848832066 1
-27.8894315958 119.5560077429 -10.5736293842 0.8040526141 1
-26.1116555929 119.5560077429 0 -0 0
-24.33387959 119.5560077429 0 -0 0
-22.5561035872 119.5560077429 -9.904495061 0.6352037417 1
-20.7783275843 119.5560077429 -9.7994119976 0.8804238085 1
-19.0005515814 119.5560077429 -9.8427568818 1.3523245892 1
-17.2227755785 119.5560077429 -10.1957477672 0.7095959923 1
-15.4449995756 119.5560077429 -10.2621956035 1.0327222953 1
-13.6672235727 119.5560077429 0 -0 0
-11.8894475698 119.5560077429 -10.7382590396 0.9108869426 1
-10.111671567 119.5560077429 -9.9628824959 0.5447766046 1
-8.3338955641 119.5560077429 -10.4393024854 0.9153717849 1
-6.5561195612 119.5560077429 -9.9599756536 0.7518855352 1
-4.7783435583 119.5560077429 -10.0241882285 0.7323037285 1
-3.0005675554 119.5560077429 -9.7885464217 1.8619985677 1
-1.2227915525 119.5560077429 -9.3847316191 2.0986355742 1
0.5549844503 119.5560077429 -10.5519941726 1.5509764703 1
2.3327604532 119.5560077429 -10.0347387772 0.515118222 1
4.1105364561 119.5560077429 -9.3108806426 1.0080527986 1
5.888312459 119.5560077429 -10.1466865705 1.2982573233 1
7.6660884619 119.5560077429 -8.5970947881 0.6996411315 1
9.4438644648 119.5560077429 -9.2508693855 0.8963384119 1
11.2216404676 119.5560077429 -9.7379215444 0.7031007034 1
12.9994164705 119.5560077429 0 -0 0
14.7771924734 119.5560077429 0 -0 0
16.5549684763 119.5560077429 0 -0 0
18.3327444792 119.5560077429 0 -0 0
20.1105204821 119.5560077429 0 -0 0
21.8882964849 119.5560077429 0 -0 0
23.6660724878 119.5560077429 0 -0 0
25.4438484907 119.5560077429 0 -0 0
27.2216244936 119.5560077429 0 -0 0
28.9994004965 119.5560077429 0 -0 0
30.7771764994 119.5560077429 0 -0 0
32.5549525023 119.5560077429 0 -0 0
34.3327285051 119.5560077429 0 -0 0
36.110504508 119.5560077429 -9.1650387823 0.7434685802 1
37.8882805109 119.5560077429 -9.2507634218 0.3502329651 1
39.6660565138 119.5560077429 -9.2938763314 0.6768503427 1
41.4438325167 119.5560077429 -9.4186385736 -0.33692736 1
43.2216085196 119.5560077429 -9.5182487547 0.2710580282 1
44.9993845224 119.5560077429 -10.0035152819 0.1543261167 1
46.7771605253 119.5560077429 -9.858304908 0.1508422018 1
48.5549365282 119.5560077429 -8.7742331727 0.6148114557 1
50.3327125311 119.5560077429 -9.3996066326 0.7194090908 1
52.110488534 119.5560077429 -10.0898971829 0.4756338534 1
53.8882645369 119.5560077429 0 -0 0
-125.6671117544 117.77823174 0 -0 0
-123.8893357515 117.77823174 -10.2061665771 -0.6777854008 1
-122.1115597486 117.77823174 -10.2912697538 -0.6621614817 1
-120.3337837458 117.77823174 -11.053871227 -0.5661927291 1
-118.5560077429 117.77823174 -10.2008555043 -0.2760970321 1
-116.77823174 117.77823174 -10.3448200887 -0.4739026355 1
-115.0004557371 117.77823174 -10.3938053924 -0.4152975455 1
-113.2226797342 117.77823174 -10.6938580981 -0.2976420314 1
-111.4449037313 117.77823174 -9.9914984247 -0.5785919149 1
-109.6671277285 117.77823174 -10.4330663781 -0.208407702 1
-107.8893517256 117.77823174 -10.5321317052 -0.1416892286 1
-106.1115757227 117.77823174 -10.5330653314 -0.1925160097 1
-104.3337997198 117.77823174 -11.141756667 -0.6544232672 1
-102.5560237169 117.77823174 -11.2560736084 -0.6301446906 1
-100.778247714 117.77823174 -11.1139333181 -0.3578236896 1
-99.0004717112 117.77823174 -10.7715631465 -0.4672841996 1
-97.2226957083 117.77823174 -10.7130489848 -0.4977315823 1
-95.4449197054 117.77823174 -11.0139250571 -0.6126979093 1
-93.6671437025 117.77823174 -10.7241694463 -0.2786645041 1
-91.8893676996 117.77823174 -10.973316614 -0.0381684139 1
-90.1115916967 117.77823174 -10.7503059676 -0.0970856673 1
-88.3338156939 117.77823174 -10.767132718 0.0906920463 1
-86.556039691 117.77823174 -10.8707630762 0.1323873334 1
-84.7782636881 117.77823174 -10.6301574425 0.2665774817 1
-83.0004876852 117.77823174 -11.007608045 -0.2995536739 1
-81.2227116823 117.77823174 -11.0396277 -0.0740843831 1
-79.4449356794 117.77823174 -11.2129986452 -0.2086940904 1
-77.6671596766 117.77823174 -11.0985012792 -0.0996918018 1
-75.8893836737 117.77823174 -11.15348284 0.680990087 1
-74.1116076708 117.77823174 -11.0082431113 0.2404459722 1
-72.3338316679 117.77823174 -10.8701244301 0.3194705552 1
-70.556055665 117.77823174 -10.7384444761 -0.0140000969 1
-68.7782796621 117.77823174 0 -0 0
-67.0005036592 117.77823174 0 -0 0
-65.2227276564 117.77823174 0 -0 0
-63.4449516535 117.77823174 0 -0 0
-61.6671756506 117.77823174 0 -0 0
-59.8893996477 117.77823174 -11.0540788586 0.2097737747 1
-58.1116236448 117.77823174 -10.8327178093 0.929217232 1
-56.3338476419 117.77823174 -11.2032607237 1.0168062601 1
-54.5560716391 117.77823174 -11.1819877934 0.6967972947 1
-52.7782956362 117.77823174 -10.8227164104 0.4346574013 1
-51.0005196333 117.77823174 -10.9821337969 0.6729812354 1
-49.2227436304 117.77823174 -11.1873618717 0.3268994702 1
-47.4449676275 117.77823174 -10.1103467465 0.6289876815 1
-45.6671916246 117.77823174 -10.093351027 0.6284120408 1
-43.8894156218 117.77823174 -9.8385226293 1.3699403396 1
-42.1116396189 117.77823174 -10.4790403078 1.0796928567 1
-40.333863616 117.77823174 -10.6832159052 1.4110385068 1
-38.5560876131 117.77823174 -10.7502393823 0.9853737013 1
-36.7783116102 117.77823174 -10.6387211716 0.9743133813 1
-35.0005356073 117.77823174 -9.9352861097 0.6457199237 1
-33.2227596045 117.77823174 -11.1562615235 0.7875766895 1
-31.4449836016 117.77823174 -11.0001068169 1.4206038794 1
-29.6672075987 117.77823174 -10.1419353869 0.855427829 1
-27.8894315958 117.77823174 -10.4253954648 0.5615961953 1
-26.1116555929 117.77823174 -10.9251768721 0.7112556131 1
-24.33387959 117.77823174 -10.9516470358 0.8295254303 1
-22.5561035872 117.77823174 -9.6483879392 1.0865647463 1
-20.7783275843 117.77823174 -10.0593524281 1.2074736327 1
-19.0005515814 117.77823174 -10.2182693509 1.249704466 1
-17.2227755785 117.77823174 -10.4327656702 1.1697219139 1
-15.4449995756 117.77823174 -10.5417071013 1.3270393574 1
-13.6672235727 117.77823174 -9.6871434493 1.1299812277 1
-11.8894475698 117.77823174 -10.6341811995 0.6562704723 1
-10.111671567 117.77823174 -9.9305435178 0.835629799 1
-8.3338955641 117.77823174 -10.0306577425 0.8615622686 1
-6.5561195612 117.77823174 -9.9949522688 1.0543231404 1
-4.7783435583 117.77823174 -9.5983057678 1.4354617095 1
-3.0005675554 117.77823174 -9.9888708112 1.2082325619 1
-1.2227915525 117.77823174 -10.0198480124 1.5873578206 1
0.5549844503 117.77823174 -9.8206634488 0.8707438806 1