TITLE = "B00065"
VARIABLES = "x", "y", "Vx", "Vy", "isValid"
ZONE T="Frame 0", I=102, J=78, F=POINT
-125.6671117544 126.6671117544 0 -0 0
-123.8893357515 126.6671117544 0 -0 0
-122.1115597486 126.6671117544 0 -0 0
-120.3337837458 126.6671117544 0 -0 0
-118.5560077429 126.6671117544 0 -0 0
-116.77823174 126.6671117544 0 -0 0
-115.0004557371 126.6671117544 0 -0 0
-113.2226797342 126.6671117544 0 -0 0
-111.4449037313 126.6671117544 0 -0 0
-109.6671277285 126.6671117544 0 -0 0
-107.8893517256 126.6671117544 0 -0 0
-106.1115757227 126.6671117544 0 -0 0
-104.3337997198 126.6671117544 0 -0 0
-102.5560237169 126.6671117544 0 -0 0
-100.778247714 126.6671117544 0 -0 0
-99.0004717112 126.6671117544 0 -0 0
-97.2226957083 126.6671117544 0 -0 0
-95.4449197054 126.6671117544 0 -0 0
-93.6671437025 126.6671117544 0 -0 0
-91.8893676996 126.6671117544 0 -0 0
-90.1115916967 126.6671117544 0 -0 0
-88.3338156939 126.6671117544 0 -0 0
-86.556039691 126.6671117544 0 -0 0
-84.7782636881 126.6671117544 0 -0 0
-83.0004876852 126.6671117544 0 -0 0
-81.2227116823 126.6671117544 0 -0 0
-79.4449356794 126.6671117544 0 -0 0
-77.6671596766 126.6671117544 0 -0 0
-75.8893836737 126.6671117544 0 -0 0
-74.1116076708 126.6671117544 0 -0 0
-72.3338316679 126.6671117544 0 -0 0
-70.556055665 126.6671117544 0 -0 0
-68.7782796621 126.6671117544 0 -0 0
-67.0005036592 126.6671117544 0 -0 0
-65.2227276564 126.6671117544 0 -0 0
-63.4449516535 126.6671117544 0 -0 0
-61.6671756506 126.6671117544 0 -0 0
-59.8893996477 126.6671117544 0 -0 0
-58.1116236448 126.6671117544 0 -0 0
-56.3338476419 126.6671117544 0 -0 0
-54.5560716391 126.6671117544 0 -0 0
-52.7782956362 126.6671117544 0 -0 0
-51.0005196333 126.6671117544 0 -0 0
-49.2227436304 126.6671117544 0 -0 0
-47.4449676275 126.6671117544 0 -0 0
-45.6671916246 126.6671117544 0 -0 0
-43.8894156218 126.6671117544 0 -0 0
-42.1116396189 126.6671117544 0 -0 0
-40.333863616 126.6671117544 0 -0 0
-38.5560876131 126.6671117544 0 -0 0
-36.7783116102 126.6671117544 0 -0 0
-35.0005356073 126.6671117544 0 -0 0
-33.2227596045 126.6671117544 0 -0 0
-31.4449836016 126.6671117544 0 -0 0
-29.6672075987 126.6671117544 0 -0 0
-27.8894315958 126.6671117544 0 -0 0
-26.1116555929 126.6671117544 0 -0 0
-24.33387959 126.6671117544 0 -0 0
-22.5561035872 126.6671117544 0 -0 0
-20.7783275843 126.6671117544 0 -0 0
-19.0005515814 126.6671117544 0 -0 0
-17.2227755785 126.6671117544 0 -0 0
-15.4449995756 126.6671117544 0 -0 0
-13.6672235727 126.6671117544 0 -0 0
-11.8894475698 126.6671117544 0 -0 0
-10.111671567 126.6671117544 0 -0 0
-8.3338955641 126.6671117544 0 -0 0
-6.5561195612 126.6671117544 0 -0 0
-4.7783435583 126.6671117544 0 -0 0
-3.0005675554 126.6671117544 0 -0 0
-1.2227915525 126.6671117544 0 -0 0
0.5549844503 126.6671117544 0 -0 0
2.3327604532 126.6671117544 0 -0 0
4.1105364561 126.6671117544 0 -0 0
5.888312459 126.6671117544 0 -0 0
7.6660884619 126.6671117544 0 -0 0
9.4438644648 126.6671117544 0 -0 0
11.2216404676 126.6671117544 0 -0 0
12.9994164705 126.6671117544 0 -0 0
14.7771924734 126.6671117544 0 -0 0
16.5549684763 126.6671117544 0 -0 0
18.3327444792 126.6671117544 0 -0 0
20.1105204821 126.6671117544 0 -0 0
21.8882964849 126.6671117544 0 -0 0
23.6660724878 126.6671117544 0 -0 0
25.4438484907 126.6671117544 0 -0 0
27.2216244936 126.6671117544 0 -0 0
28.9994004965 126.6671117544 0 -0 0
30.7771764994 126.6671117544 0 -0 0
32.5549525023 126.6671117544 0 -0 0
34.3327285051 126.6671117544 0 -0 0
36.110504508 126.6671117544 0 -0 0
37.8882805109 126.6671117544 0 -0 0
39.6660565138 126.6671117544 0 -0 0
41.4438325167 126.6671117544 0 -0 0
43.2216085196 126.6671117544 0 -0 0
44.9993845224 126.6671117544 0 -0 0
46.7771605253 126.6671117544 0 -0 0
48.5549365282 126.6671117544 0 -0 0
50.3327125311 126.6671117544 0 -0 0
52.110488534 126.6671117544 0 -0 0
53.8882645369 126.6671117544 0 -0 0
-125.6671117544 124.8893357515 0 -0 0
-123.8893357515 124.8893357515 -10.1881799537 -0.1178044361 1
-122.1115597486 124.8893357515 -10.2685491302 0.0207917978 1
-120.3337837458 124.8893357515 -10.4760375254 -0.0188243095 1
-118.5560077429 124.8893357515 -11.0110482856 -0.8684828442 1
-116.77823174 124.8893357515 -10.8511404591 -0.6765367474 1
-115.0004557371 124.8893357515 -10.6617589704 -0.1446819873 1
-113.2226797342 124.8893357515 -10.0627174918 -0.4313911416 1
-111.4449037313 124.8893357515 -10.9038423683 -0.5019830181 1
-109.6671277285 124.8893357515 -10.8433950848 -0.4512221063 1
-107.8893517256 124.8893357515 -10.6690139045 -0.6326462933 1
-106.1115757227 124.8893357515 -10.4836182263 -0.5873253291 1
-104.3337997198 124.8893357515 -10.254752369 -0.3186371649 1
-102.5560237169 124.8893357515 -10.6671266049 -0.2293784925 1
-100.778247714 124.8893357515 -10.5649324845 0.3238752087 1
-99.0004717112 124.8893357515 -11.0720468668 -0.0662029743 1
-97.2226957083 124.8893357515 -10.433634859 -0.1680899432 1
-95.4449197054 124.8893357515 -10.39924534 0.0242728488 1
-93.6671437025 124.8893357515 -10.5541170266 -0.1294532842 1
-91.8893676996 124.8893357515 -10.8115007247 -0.0778432308 1
-90.1115916967 124.8893357515 -10.6858957846 0.0637844243 1
-88.3338156939 124.8893357515 -10.2472962471 -0.1656470501 1
-86.556039691 124.8893357515 -10.1555245165 -0.5208989719 1
-84.7782636881 124.8893357515 -10.8192940691 0.2040202317 1
-83.0004876852 124.8893357515 -10.927596854 0.2461193264 1
-81.2227116823 124.8893357515 -10.5356356673 0.669510208 1
-79.4449356794 124.8893357515 -10.3503631361 0.4128303094 1
-77.6671596766 124.8893357515 -10.3910159694 -0.3063940608 1
-75.8893836737 124.8893357515 -11.0898731127 -0.264940772 1
-74.1116076708 124.8893357515 -10.8745176281 0.5450372181 1
-72.3338316679 124.8893357515 -10.5230882755 0.604633212 1
-70.556055665 124.8893357515 -10.8497156768 0.755743187 1
-68.7782796621 124.8893357515 0 -0 0
-67.0005036592 124.8893357515 0 -0 0
-65.2227276564 124.8893357515 0 -0 0
-63.4449516535 124.8893357515 0 -0 0
-61.6671756506 124.8893357515 0 -0 0
-59.8893996477 124.8893357515 0 -0 0
-58.1116236448 124.8893357515 -10.9693981048 0.4503958757 1
-56.3338476419 124.8893357515 -11.2100015906 0.7655090314 1
-54.5560716391 124.8893357515 -10.732298581 0.4690956063 1
-52.7782956362 124.8893357515 -10.6125252247 1.0358310414 1
-51.0005196333 124.8893357515 -10.6172148347 1.6602579877 1
-49.2227436304 124.8893357515 -10.387494824 1.2641613524 1
-47.4449676275 124.8893357515 -10.6308068281 0.4525896109 1
-45.6671916246 124.8893357515 -11.0729275111 -0.0716858802 1
-43.8894156218 124.8893357515 -11.227668891 1.1124914881 1
-42.1116396189 124.8893357515 -10.958209626 1.2067934602 1
-40.333863616 124.8893357515 -10.5248581558 0.4936233407 1
-38.5560876131 124.8893357515 -10.7108931961 0.9197449357 1
-36.7783116102 124.8893357515 -10.5254116014 1.0140870022 1
-35.0005356073 124.8893357515 -10.6281548716 0.8169028616 1
-33.2227596045 124.8893357515 -10.9551595895 1.4972614622 1
-31.4449836016 124.8893357515 -11.0154794302 0.9734141218 1
-29.6672075987 124.8893357515 -10.83615805 0.8384736358 1
-27.8894315958 124.8893357515 -10.172374178 0.8848656926 1
-26.1116555929 124.8893357515 -10.077055527 0.6365927254 1
-24.33387959 124.8893357515 -10.9202137611 0.8225189381 1
-22.5561035872 124.8893357515 -9.7079968206 0.9680973211 1
-20.7783275843 124.8893357515 -9.7968430937 1.7318837263 1
-19.0005515814 124.8893357515 -10.5947820314 1.1458399853 1
-17.2227755785 124.8893357515 0 -0 0
-15.4449995756 124.8893357515 -10.3965146267 0.2406936982 1
-13.6672235727 124.8893357515 -10.2489472762 1.1237651675 1
-11.8894475698 124.8893357515 -9.9173581959 0.7785826618 1
-10.111671567 124.8893357515 -10.5192384995 0.8409752385 1
-8.3338955641 124.8893357515 -10.1920018069 1.2313269224 1
-6.5561195612 124.8893357515 -10.2848260148 1.388519787 1
-4.7783435583 124.8893357515 -9.3951962512 0.7766080138 1
-3.0005675554 124.8893357515 -9.7981576164 0.9431285485 1
-1.2227915525 124.8893357515 -9.7706800814 1.4040892923 1
0.5549844503 124.8893357515 -10.0016695087 1.2793112987 1
2.3327604532 124.8893357515 -9.2066008987 0.6902132254 1
4.1105364561 124.8893357515 -9.8247774181 0.5397232813 1
5.888312459 124.8893357515 -9.6391404577 0.3760780861 1
7.6660884619 124.8893357515 -10.0973189382 0.5468285775 1
9.4438644648 124.8893357515 -9.1656444937 0.320362655 1
11.2216404676 124.8893357515 0 -0 0
12.9994164705 124.8893357515 0 -0 0
14.7771924734 124.8893357515 0 -0 0
16.5549684763 124.8893357515 0 -0 0
18.3327444792 124.8893357515 0 -0 0
20.1105204821 124.8893357515 0 -0 0
21.8882964849 124.8893357515 0 -0 0
23.6660724878 124.8893357515 0 -0 0
25.4438484907 124.8893357515 0 -0 0
27.2216244936 124.8893357515 0 -0 0
28.9994004965 124.8893357515 0 -0 0
30.7771764994 124.8893357515 0 -0 0
32.5549525023 124.8893357515 0 -0 0
34.3327285051 124.8893357515 0 -0 0
36.110504508 124.8893357515 -9.2903380027 0.2015329485 1
37.8882805109 124.8893357515 -9.3989235962 0.6941510659 1
39.6660565138 124.8893357515 -9.6925919886 0.858638243 1
41.4438325167 124.8893357515 -9.9576186771 0.2319889228 1
43.2216085196 124.8893357515 -10.004204046 0.5774678404 1
44.9993845224 124.8893357515 -9.4849002576 0.3766680462 1
46.7771605253 124.8893357515 -9.3910994652 0.5107078407 1
48.5549365282 124.8893357515 -9.8921603126 0.2206407825 1
50.3327125311 124.8893357515 -9.5150598199 0.3664697553 1
52.110488534 124.8893357515 0 -0 0
53.8882645369 124.8893357515 0 -0 0
-125.6671117544 123.1115597486 0 -0 0
-123.8893357515 123.1115597486 -10.0088506978 -0.1768434046 1
-122.1115597486 123.1115597486 -10.6606449195 -0.3760766542 1
-120.3337837458 123.1115597486 -10.4126712282 -0.3830645311 1
-118.5560077429 123.1115597486 -10.1273882882 -0.8505921609 1
-116.77823174 123.1115597486 -10.075699478 -0.7473119125 1
-115.0004557371 123.1115597486 -10.3095041032 -0.2917481581 1
-113.2226797342 123.1115597486 -9.9130136839 -0.2407867744 1
-111.4449037313 123.1115597486 -10.8565839866 -0.2823073645 1
-109.6671277285 123.1115597486 -10.8911661017 -0.4815907321 1
-107.8893517256 123.1115597486 -10.8906935609 -0.5539911514 1
-106.1115757227 123.1115597486 -10.4139943426 -0.3544772411 1
-104.3337997198 123.1115597486 -10.7103497741 -0.0527613348 1
-102.5560237169 123.1115597486 -10.8032699222 -0.1032387221 1
-100.778247714 123.1115597486 -10.3646453256 -0.2607967319 1
-99.0004717112 123.1115597486 -11.0829668564 -0.0564614729 1
-97.2226957083 123.1115597486 -10.7428197748 -0.180290089 1
-95.4449197054 123.1115597486 -10.8824863853 -0.157009576 1
-93.6671437025 123.1115597486 -10.6336850316 -0.236797384 1
-91.8893676996 123.1115597486 -11.0083641104 0.0867814127 1
-90.1115916967 123.1115597486 -10.6163327585 0.0499217938 1
-88.3338156939 123.1115597486 -10.6092453615 -0.2864055825 1
-86.556039691 123.1115597486 -10.5612015597 -0.3496258216 1
-84.7782636881 123.1115597486 -10.8582808378 -0.0034166136 1
-83.0004876852 123.1115597486 -10.974454292 0.3804626925 1
-81.2227116823 123.1115597486 -10.8199527624 0.469177227 1
-79.4449356794 123.1115597486 -11.0479071886 0.1203203582 1
-77.6671596766 123.1115597486 -10.9415754718 0.0228881609 1
-75.8893836737 123.1115597486 -11.0477017049 -0.0418212979 1
-74.1116076708 123.1115597486 -10.9541457746 0.3947019237 1
-72.3338316679 123.1115597486 -10.7565256076 0.4095883927 1
-70.556055665 123.1115597486 -10.3670939464 0.7816942718 1
-68.7782796621 123.1115597486 0 -0 0
-67.0005036592 123.1115597486 0 -0 0
-65.2227276564 123.1115597486 0 -0 0
-63.4449516535 123.1115597486 0 -0 0
-61.6671756506 123.1115597486 0 -0 0
-59.8893996477 123.1115597486 0 -0 0
-58.1116236448 123.1115597486 -11.1930610008 0.5763938839 1
-56.3338476419 123.1115597486 -11.1434463586 0.5975894893 1
-54.5560716391 123.1115597486 -11.0404002327 0.8751113037 1
-52.7782956362 123.1115597486 -10.7266989718 0.7447057781 1
-51.0005196333 123.1115597486 -10.7473346879 0.9601543389 1
-49.2227436304 123.1115597486 -10.9268200255 0.759199895 1
-47.4449676275 123.1115597486 -10.8619731003 0.6591601313 1
-45.6671916246 123.1115597486 -10.4635252163 0.4127042985 1
-43.8894156218 123.1115597486 -9.8758562211 0.4749751601 1
-42.1116396189 123.1115597486 -9.8015398634 0.7521690598 1
-40.333863616 123.1115597486 -10.6394113676 0.623690928 1
-38.5560876131 123.1115597486 -10.5122985926 1.013993926 1
-36.7783116102 123.1115597486 -10.2785541089 0.9595400358 1
-35.0005356073 123.1115597486 -9.991688873 0.5605723568 1
-33.2227596045 123.1115597486 -10.9328033951 1.0099601454 1
-31.4449836016 123.1115597486 -11.2344727634 1.1029117962 1
-29.6672075987 123.1115597486 -10.9738142139 0.5469345412 1
-27.8894315958 123.1115597486 -11.1097019295 0.0747187334 1
-26.1116555929 123.1115597486 -10.2194793419 0.7374472641 1
-24.33387959 123.1115597486 -9.6268773065 0.5576426035 1
-22.5561035872 123.1115597486 -9.6956993027 0.7320717538 1
-20.7783275843 123.1115597486 -10.6265510965 0.7336425942 1
-19.0005515814 123.1115597486 -10.8304925714 1.1871214411 1
-17.2227755785 123.1115597486 -10.7935205451 1.5210001966 1
-15.4449995756 123.1115597486 -10.6076895566 0.9693502704 1
-13.6672235727 123.1115597486 -10.0239004082 1.5829388476 1
-11.8894475698 123.1115597486 -9.9901194646 0.7812174351 1
-10.111671567 123.1115597486 -10.4956121725 0.8859095783 1
-8.3338955641 123.1115597486 -10.1873036052 1.2540146114 1
-6.5561195612 123.1115597486 -10.177656612 1.3942604425 1
-4.7783435583 123.1115597486 0 -0 0
-3.0005675554 123.1115597486 -9.9985894015 0.6679236163 1
-1.2227915525 123.1115597486 0 -0 0
0.5549844503 123.1115597486 -9.1697727825 0.2262353798 1
2.3327604532 123.1115597486 -10.1872778302 0.9352800745 1
4.1105364561 123.1115597486 -9.9242487008 1.3515155419 1
5.888312459 123.1115597486 -10.025683176 0.5331435079 1
7.6660884619 123.1115597486 0 -0 0
9.4438644648 123.1115597486 -9.0994286319 0.4277711922 1
11.2216404676 123.1115597486 0 -0 0
12.9994164705 123.1115597486 0 -0 0
14.7771924734 123.1115597486 0 -0 0
16.5549684763 123.1115597486 0 -0 0
18.3327444792 123.1115597486 0 -0 0
20.1105204821 123.1115597486 0 -0 0
21.8882964849 123.1115597486 0 -0 0
23.6660724878 123.1115597486 0 -0 0
25.4438484907 123.1115597486 0 -0 0
27.2216244936 123.1115597486 0 -0 0
28.9994004965 123.1115597486 0 -0 0
30.7771764994 123.1115597486 0 -0 0
32.5549525023 123.1115597486 0 -0 0
34.3327285051 123.1115597486 0 -0 0
36.110504508 123.1115597486 -9.7980802915 -0.2964950458 1
37.8882805109 123.1115597486 -9.1272698802 0.4781913018 1
39.6660565138 123.1115597486 -9.1580294262 0.7140378763 1
41.4438325167 123.1115597486 -9.3334208416 0.5171988337 1
43.2216085196 123.1115597486 -9.587859751 0.5991846727 1
44.9993845224 123.1115597486 -9.2600295185 0.6103495245 1
46.7771605253 123.1115597486 -9.0684027447 0.545929318 1
48.5549365282 123.1115597486 -9.9281092164 0.2889845101 1
50.3327125311 123.1115597486 -9.3979455799 0.2866389891 1
52.110488534 123.1115597486 -9.3330170339 0.3296058406 1
53.8882645369 123.1115597486 0 -0 0
-125.6671117544 121.3337837458 0 -0 0
-123.8893357515 121.3337837458 -10.001341594 -0.1018425786 1
-122.1115597486 121.3337837458 -10.63323039 -0.3907426041 1
-120.3337837458 121.3337837458 -10.3844247404 -0.2586688661 1
-118.5560077429 121.3337837458 -9.9390392297 -0.3637705447 1
-116.77823174 121.3337837458 -10.0902737836 -0.5870002783 1
-115.0004557371 121.3337837458 -10.1889804093 -0.7398672461 1
-113.2226797342 121.3337837458 -10.1902920682 -0.1479797498 1
-111.4449037313 121.3337837458 -10.9282763105 -0.3087009194 1
-109.6671277285 121.3337837458 -10.7524660521 -0.6017378253 1
-107.8893517256 121.3337837458 -10.6763755183 -0.4157586308 1
-106.1115757227 121.3337837458 -11.0545177488 -0.1767417367 1
-104.3337997198 121.3337837458 -11.0632912574 -0.0264766075 1
-102.5560237169 121.3337837458 -10.9583120098 -0.1630495073 1
-100.778247714 121.3337837458 -10.2530139915 -0.4921198016 1
-99.0004717112 121.3337837458 -10.9415010108 -0.155281222 1
-97.2226957083 121.3337837458 -10.9353422283 -0.0550467142 1
-95.4449197054 121.3337837458 -10.8314770316 -0.6879622126 1
-93.6671437025 121.3337837458 -10.535566934 0.0701665898 1
-91.8893676996 121.3337837458 -11.0082395314 0.5495120368 1
-90.1115916967 121.3337837458 -11.1348496948 0.2026727743 1
-88.3338156939 121.3337837458 -10.9588633075 -0.1136174377 1
-86.556039691 121.3337837458 -10.6489609888 -0.1090609982 1
-84.7782636881 121.3337837458 -10.6885849717 -0.1869514831 1
-83.0004876852 121.3337837458 -10.9151668815 0.4666684646 1
-81.2227116823 121.3337837458 -11.0621270886 -0.1020645297 1
-79.4449356794 121.3337837458 -10.8959430602 -0.2815656186 1
-77.6671596766 121.3337837458 -11.0620948699 0.2100988255 1
-75.8893836737 121.3337837458 -11.1431306154 0.1584501096 1
-74.1116076708 121.3337837458 -10.6576177941 0.3691345994 1
-72.3338316679 121.3337837458 -10.4304444923 -0.1426314464 1
-70.556055665 121.3337837458 -11.0814797847 0.530374132 1
-68.7782796621 121.3337837458 0 -0 0
-67.0005036592 121.3337837458 0 -0 0
-65.2227276564 121.3337837458 0 -0 0
-63.4449516535 121.3337837458 0 -0 0
-61.6671756506 121.3337837458 0 -0 0
-59.8893996477 121.3337837458 -9.8702014821 0.5134786484 1
-58.1116236448 121.3337837458 -10.937546703 0.5506060405 1
-56.3338476419 121.3337837458 -10.6158702412 0.3151818889 1
-54.5560716391 121.3337837458 -10.7294805192 0.6321708885 1
-52.7782956362 121.3337837458 -10.3286262566 0.5340814299 1
-51.0005196333 121.3337837458 -10.6413802878 0.6834115009 1
-49.2227436304 121.3337837458 -10.9895813272 1.1025982009 1
-47.4449676275 121.3337837458 -10.8760634095 0.7647501021 1
-45.6671916246 121.3337837458 -10.2384454136 0.8829153876 1
-43.8894156218 121.3337837458 -11.0027029277 1.132985442 1
-42.1116396189 121.3337837458 -9.795353874 0.3934833411 1
-40.333863616 121.3337837458 -9.938686972 0.6224236594 1
-38.5560876131 121.3337837458 -10.6704028882 0.8379939352 1
-36.7783116102 121.3337837458 -10.164153399 0.6242665687 1
-35.0005356073 121.3337837458 0 -0 0
-33.2227596045 121.3337837458 -9.6467999155 0.6844840255 1
-31.4449836016 121.3337837458 -9.3931127756 1.0185718445 1
-29.6672075987 121.3337837458 -10.0259982032 0.5497425795 1
-27.8894315958 121.3337837458 0 -0 0
-26.1116555929 121.3337837458 -10.0176471175 0.8659597624 1
-24.33387959 121.3337837458 -11.1719792348 1.3467443112 1
-22.5561035872 121.3337837458 -10.1718658385 0.849997905 1
-20.7783275843 121.3337837458 -10.4937033938 0.9369769257 1
-19.0005515814 121.3337837458 -10.6924390436 0.8213461776 1
-17.2227755785 121.3337837458 -10.3488868039 1.1104022848 1
-15.4449995756 121.3337837458 -10.286106171 1.0175050478 1
-13.6672235727 121.3337837458 -10.8058273706 1.387876845 1
-11.8894475698 121.3337837458 -10.117444883 1.4522641169 1
-10.111671567 121.3337837458 -9.7954097197 1.091781311 1
-8.3338955641 121.3337837458 -10.3656305017 1.0120851473 1
-6.5561195612 121.3337837458 -10.3821694317 0.9955863116 1
-4.7783435583 121.3337837458 -10.0825212496 0.6592374562 1
-3.0005675554 121.3337837458 -10.18318534 0.9307608655 1
-1.2227915525 121.3337837458 -9.3600735779 0.7169891088 1
0.5549844503 121.3337837458 0 -0 0
2.3327604532 121.3337837458 -9.6706503414 1.4685968473 1
4.1105364561 121.3337837458 -9.7965323622 1.0508621366 1
5.888312459 121.3337837458 -10.4819657653 0.7701943456 1
7.6660884619 121.3337837458 -9.7512400369 0.6262669917 1
9.4438644648 121.3337837458 -9.0314915759 0.8843716726 1
11.2216404676 121.3337837458 0 -0 0
12.9994164705 121.3337837458 0 -0 0
14.7771924734 121.3337837458 0 -0 0
16.5549684763 121.3337837458 0 -0 0
18.3327444792 121.3337837458 0 -0 0
20.1105204821 121.3337837458 0 -0 0
21.8882964849 121.3337837458 0 -0 0
23.6660724878 121.3337837458 0 -0 0
25.4438484907 121.3337837458 0 -0 0
27.2216244936 121.3337837458 0 -0 0
28.9994004965 121.3337837458 0 -0 0
30.7771764994 121.3337837458 0 -0 0
32.5549525023 121.3337837458 0 -0 0
34.3327285051 121.3337837458 0 -0 0
36.110504508 121.3337837458 -9.4654645089 0.4753689442 1
37.8882805109 121.3337837458 -9.6242683082 0.5417151127 1
39.6660565138 121.3337837458 -9.1694090692 0.4728873887 1
41.4438325167 121.3337837458 -9.5610366135 0.8228053265 1
43.2216085196 121.3337837458 -9.3159998353 0.9838300678 1
44.9993845224 121.3337837458 -9.294626669 0.7651281348 1
46.7771605253 121.3337837458 -10.0916284007 0.1590973474 1
48.5549365282 121.3337837458 -9.1251477421 0.6657785672 1
50.3327125311 121.3337837458 -9.0056793895 -0.1101449783 1
52.110488534 121.3337837458 -9.529499523 -0.0251864278 1
53.8882645369 121.3337837458 0 -0 0
-125.6671117544 119.5560077429 0 -0 0
-123.8893357515 119.5560077429 -10.1693986025 -0.1784915698 1
-122.1115597486 119.5560077429 -10.3533816699 -0.3623257152 1
-120.3337837458 119.5560077429 -10.2201552185 -0.1908764361 1
-118.5560077429 119.5560077429 -9.8812660979 -0.0420060185 1
-116.77823174 119.5560077429 -10.6580989266 -0.404149877 1
-115.0004557371 119.5560077429 -10.3680361642 -0.6531273597 1
-113.2226797342 119.5560077429 -10.3005344185 -0.5888689626 1
-111.4449037313 119.5560077429 -10.8021952497 -0.5457474613 1
-109.6671277285 119.5560077429 -10.2856422218 -0.4876550065 1
-107.8893517256 119.5560077429 -10.5477527604 -0.177598038 1
-106.1115757227 119.5560077429 -10.7885681737 -0.1276347179 1
-104.3337997198 119.5560077429 -10.838896639 -0.0596146092 1
-102.5560237169 119.5560077429 -10.906095529 -0.453178139 1
-100.778247714 119.5560077429 -10.6930812696 -0.4712320637 1
-99.0004717112 119.5560077429 -11.1215770244 -0.0115743872 1
-97.2226957083 119.5560077429 -10.9428441724 -0.0623796892 1
-95.4449197054 119.5560077429 -10.6633133434 -0.5141931875 1
-93.6671437025 119.5560077429 -10.6163771487 0.2918526899 1
-91.8893676996 119.5560077429 -10.8061509895 0.1767059381 1
-90.1115916967 119.5560077429 -11.0521271217 -0.1034749925 1
-88.3338156939 119.5560077429 -10.918315722 -0.0914080173 1
-86.556039691 119.5560077429 -11.0657627893 -0.1496164595 1
-84.7782636881 119.5560077429 -11.2026027463 -0.2754984803 1
-83.0004876852 119.5560077429 -11.3202553965 0.08887348 1
-81.2227116823 119.5560077429 -10.9616727777 0.1020487783 1
-79.4449356794 119.5560077429 -10.588275287 0.4588586529 1
-77.6671596766 119.5560077429 -10.8617217944 0.3461433387 1
-75.8893836737 119.5560077429 -11.4979508066 0.1714836457 1
-74.1116076708 119.5560077429 -10.9155470621 0.0927970011 1
-72.3338316679 119.5560077429 -11.0378678433 0.124324068 1
-70.556055665 119.5560077429 -11.1276942806 0.2923853723 1
-68.7782796621 119.5560077429 0 -0 0
-67.0005036592 119.5560077429 0 -0 0
-65.2227276564 119.5560077429 0 -0 0
-63.4449516535 119.5560077429 0 -0 0
-61.6671756506 119.5560077429 0 -0 0
-59.8893996477 119.5560077429 -10.7813612096 0.2215386101 1
-58.1116236448 119.5560077429 -10.5634074663 0.4127343693 1
-56.3338476419 119.5560077429 -10.4690138499 0.4586868199 1
-54.5560716391 119.5560077429 -10.8186897895 0.6549387663 1
-52.7782956362 119.5560077429 -10.2260118612 0.9603218761 1
-51.0005196333 119.5560077429 -10.3210985376 0.8170933099 1
-49.2227436304 119.5560077429 -10.2740048292 0.7473849416 1
-47.4449676275 119.5560077429 -10.4810035003 0.8681391781 1
-45.6671916246 119.5560077429 -10.1669370942 0.8739070405 1
-43.8894156218 119.5560077429 -10.942557784 0.7114102628 1
-42.1116396189 119.5560077429 -10.6085523016 0.8427837812 1
-40.333863616 119.5560077429 -10.692948099 0.5061728804 1
-38.5560876131 119.5560077429 -9.9049432588 0.8834638214 1
-36.7783116102 119.5560077429 -9.9506265043 0.538572 1
-35.0005356073 119.5560077429 -9.8455935589 0.7713914491 1
-33.2227596045 119.5560077429 -9.7641475621 0.9599910975 1
-31.4449836016 119.5560077429 -9.3070874283 0.1568993165 1
-29.6672075987 119.5560077429 -10.1839729081 1.0290436364 1
-27.8894315958 119.5560077429 -10.9789627613 0.4570014242 1
-26.1116555929 119.5560077429 -10.8523432903 0.4629382557 1
-24.33387959 119.5560077429 -10.6275835267 0.698320881 1
-22.5561035872 119.5560077429 -10.3392111719 0.8314428006 1
-20.7783275843 119.5560077429 -10.3025649123 1.3857561389 1
-19.0005515814 119.5560077429 -10.5393809116 0.7097492101 1
-17.2227755785 119.5560077429 -10.3193730474 0.6102492885 1
-15.4449995756 119.5560077429 -10.1346568258 0.8024101766 1
-13.6672235727 119.5560077429 -10.8193756898 1.5539391583 1
-11.8894475698 119.5560077429 -10.0283694992 1.3366247771 1
-10.111671567 119.5560077429 -9.5190692575 1.270368821 1
-8.3338955641 119.5560077429 -10.3470553501 1.1285979717 1
-6.5561195612 119.5560077429 -9.7493899678 0.8264195481 1
-4.7783435583 119.5560077429 -10.2348655586 0.6686868414 1
-3.0005675554 119.5560077429 -10.0326295266 0.7595807915 1
-1.2227915525 119.5560077429 -9.6162909593 0.6690691699 1
0.5549844503 119.5560077429 -9.8128407496 0.7583235465 1
2.3327604532 119.5560077429 0 -0 0
4.1105364561 119.5560077429 -9.8656980245 0.5292242826 1
5.888312459 119.5560077429 -9.5254456952 0.2689831443 1
7.6660884619 119.5560077429 -9.5555150452 0.9428120894 1
9.4438644648 119.5560077429 -9.1827404492 0.7119415133 1
11.2216404676 119.5560077429 0 -0 0
12.9994164705 119.5560077429 0 -0 0
14.7771924734 119.5560077429 0 -0 0
16.5549684763 119.5560077429 0 -0 0
18.3327444792 119.5560077429 0 -0 0
20.1105204821 119.5560077429 0 -0 0
21.8882964849 119.5560077429 0 -0 0
23.6660724878 119.5560077429 0 -0 0
25.4438484907 119.5560077429 0 -0 0
27.2216244936 119.5560077429 0 -0 0
28.9994004965 119.5560077429 0 -0 0
30.7771764994 119.5560077429 0 -0 0
32.5549525023 119.5560077429 0 -0 0
34.3327285051 119.5560077429 0 -0 0
36.110504508 119.5560077429 -9.7448535756 0.4645133919 1
37.8882805109 119.5560077429 -9.8522878877 0.0344969146 1
39.6660565138 119.5560077429 -10.0542418272 0.1458246771 1
41.4438325167 119.5560077429 -9.8107787532 0.9844042766 1
43.2216085196 119.5560077429 -8.8353627765 0.9127498991 1
44.9993845224 119.5560077429 -8.947281931 0.6556160749 1
46.7771605253 119.5560077429 -9.3646486326 0.566294397 1
48.5549365282 119.5560077429 -8.5275868916 0.3922991251 1
50.3327125311 119.5560077429 -8.5216429004 -0.4815320225 1
52.110488534 119.5560077429 -8.367359742 0.4485472386 1
53.8882645369 119.5560077429 0 -0 0
-125.6671117544 117.77823174 0 -0 0
-123.8893357515 117.77823174 -10.4267400583 -0.2842949 1
-122.1115597486 117.77823174 -10.0868543061 -0.2111570306 1
-120.3337837458 117.77823174 -10.3344814674 -0.2417733824 1
-118.5560077429 117.77823174 -10.1916595728 -0.1471019693 1
-116.77823174 117.77823174 -10.6053490474 -0.146713913 1
-115.0004557371 117.77823174 -10.2696517255 -0.4798595143 1
-113.2226797342 117.77823174 -10.0559945242 -0.3563373338 1
-111.4449037313 117.77823174 -10.9609618185 -0.4187843242 1
-109.6671277285 117.77823174 -10.5006339931 -0.5842051275 1
-107.8893517256 117.77823174 -10.6159898083 -0.5458706083 1
-106.1115757227 117.77823174 -10.2637492606 -0.538175352 1
-104.3337997198 117.77823174 -9.9630228262 -0.5270964168 1
-102.5560237169 117.77823174 -10.4428035836 -0.597251551 1
-100.778247714 117.77823174 -11.1525785687 -0.6364652826 1
-99.0004717112 117.77823174 -11.0790590867 -0.0837757665 1
-97.2226957083 117.77823174 -10.8347941252 -0.0463977846 1
-95.4449197054 117.77823174 -10.8342993892 -0.0146530624 1
-93.6671437025 117.77823174 -10.6792644613 0.6060221958 1
-91.8893676996 117.77823174 -10.7391160568 -0.0146172639 1
-90.1115916967 117.77823174 -10.8444296629 -0.5745352232 1
-88.3338156939 117.77823174 -10.9391411704 -0.5591962605 1
-86.556039691 117.77823174 -11.2456490706 -0.2930254504 1
-84.7782636881 117.77823174 -10.9484394857 0.0131767302 1
-83.0004876852 117.77823174 -11.0868545789 -0.0385306952 1
-81.2227116823 117.77823174 -10.9881944914 0.1411751614 1
-79.4449356794 117.77823174 -10.6652199742 0.3372151804 1
-77.6671596766 117.77823174 -10.4798078287 0.1753957112 1
-75.8893836737 117.77823174 -11.3251418986 0.4812356105 1
-74.1116076708 117.77823174 -11.3808208152 0.0393612216 1
-72.3338316679 117.77823174 -11.6432334936 0.5424282198 1
-70.556055665 117.77823174 -10.8549164901 0.5051089475 1
-68.7782796621 117.77823174 0 -0 0
-67.0005036592 117.77823174 0 -0 0
-65.2227276564 117.77823174 0 -0 0
-63.4449516535 117.77823174 0 -0 0
-61.6671756506 117.77823174 0 -0 0
-59.8893996477 117.77823174 -10.9896686757 0.4934085494 1
-58.1116236448 117.77823174 -10.270800143 0.3117867544 1
-56.3338476419 117.77823174 -10.3105308056 0.9283065169 1
-54.5560716391 117.77823174 -11.1222915635 1.1677802005 1
-52.7782956362 117.77823174 -10.048690188 0.9727267896 1
-51.0005196333 117.77823174 -10.5500180927 0.8872355566 1
-49.2227436304 117.77823174 -10.686454242 0.7245597861 1
-47.4449676275 117.77823174 -10.7042031631 0.7345404218 1
-45.6671916246 117.77823174 -10.9038545398 0.8130108432 1
-43.8894156218 117.77823174 -10.4467657671 0.6767071485 1
-42.1116396189 117.77823174 -10.1049826918 0.8378092147 1
-40.333863616 117.77823174 -11.5497670597 0.766803507 1
-38.5560876131 117.77823174 -10.1867795144 1.0842134976 1
-36.7783116102 117.77823174 -10.2080567406 1.5064760089 1
-35.0005356073 117.77823174 -10.7884679377 1.1121349346 1
-33.2227596045 117.77823174 -9.6863086271 1.0897594089 1
-31.4449836016 117.77823174 -10.0106363295 0.8972706061 1
-29.6672075987 117.77823174 -10.8583381155 1.4975149159 1
-27.8894315958 117.77823174 -10.5845450781 0.8648628949 1
-26.1116555929 117.77823174 -9.3422186932 0.932131234 1
-24.33387959 117.77823174 -10.0896036348 1.1536497969 1
-22.5561035872 117.77823174 -10.5396551284 1.1840814282 1
-20.7783275843 117.77823174 -10.2840098079 0.9652663718 1
-19.0005515814 117.77823174 -10.0460339356 0.7905393775 1
-17.2227755785 117.77823174 -9.3215529063 0.8137740683 1
-15.4449995756 117.77823174 0 -0 0
-13.6672235727 117.77823174 -10.1038256827 1.4656484787 1
-11.8894475698 117.77823174 0 -0 0
-10.111671567 117.77823174 -9.9280147083 1.1993301785 1
-8.3338955641 117.77823174 -10.1342916806 0.6883287898 1
-6.5561195612 117.77823174 -10.0870003642 1.2721845234 1
-4.7783435583 117.77823174 -10.1742614775 0.9707793485 1
-3.0005675554 117.77823174 -9.3263713911 0.6525803578 1
-1.2227915525 117.77823174 -9.6638572085 0.9597691465 1
0.5549844503 117.77823174 -9.9486232175 0.8712751311 1
2.3327604532 117.77823174 -9.5072342569 0.5223910554 1
4.1105364561 117.77823174 0 -0 0