TITLE = "B00003"
VARIABLES = "x", "y", "Vx", "Vy", "isValid"
ZONE T="Frame 0", I=102, J=78, F=POINT
-125.6671117544 126.6671117544 0 -0 0
-123.8893357515 126.6671117544 0 -0 0
-122.1115597486 126.6671117544 0 -0 0
-120.3337837458 126.6671117544 0 -0 0
-118.5560077429 126.6671117544 0 -0 0
-116.77823174 126.6671117544 0 -0 0
-115.0004557371 126.6671117544 0 -0 0
-113.2226797342 126.6671117544 0 -0 0
-111.4449037313 126.6671117544 0 -0 0
-109.6671277285 126.6671117544 0 -0 0
-107.8893517256 126.6671117544 0 -0 0
-106.1115757227 126.6671117544 0 -0 0
-104.3337997198 126.6671117544 0 -0 0
-102.5560237169 126.6671117544 0 -0 0
-100.778247714 126.6671117544 0 -0 0
-99.0004717112 126.6671117544 0 -0 0
-97.2226957083 126.6671117544 0 -0 0
-95.4449197054 126.6671117544 0 -0 0
-93.6671437025 126.6671117544 0 -0 0
-91.8893676996 126.6671117544 0 -0 0
-90.1115916967 126.6671117544 0 -0 0
-88.3338156939 126.6671117544 0 -0 0
-86.556039691 126.6671117544 0 -0 0
-84.7782636881 126.6671117544 0 -0 0
-83.0004876852 126.6671117544 0 -0 0
-81.2227116823 126.6671117544 0 -0 0
-79.4449356794 126.6671117544 0 -0 0
-77.6671596766 126.6671117544 0 -0 0
-75.8893836737 126.6671117544 0 -0 0
-74.1116076708 126.6671117544 0 -0 0
-72.3338316679 126.6671117544 0 -0 0
-70.556055665 126.6671117544 0 -0 0
-68.7782796621 126.6671117544 0 -0 0
-67.0005036592 126.6671117544 0 -0 0
-65.2227276564 126.6671117544 0 -0 0
-63.4449516535 126.6671117544 0 -0 0
-61.6671756506 126.6671117544 0 -0 0
-59.8893996477 126.6671117544 0 -0 0
-58.1116236448 126.6671117544 0 -0 0
-56.3338476419 126.6671117544 0 -0 0
-54.5560716391 126.6671117544 0 -0 0
-52.7782956362 126.6671117544 0 -0 0
-51.0005196333 126.6671117544 0 -0 0
-49.2227436304 126.6671117544 0 -0 0
-47.4449676275 126.6671117544 0 -0 0
-45.6671916246 126.6671117544 0 -0 0
-43.8894156218 126.6671117544 0 -0 0
-42.1116396189 126.6671117544 0 -0 0
-40.333863616 126.6671117544 0 -0 0
-38.5560876131 126.6671117544 0 -0 0
-36.7783116102 126.6671117544 0 -0 0
-35.0005356073 126.6671117544 0 -0 0
-33.2227596045 126.6671117544 0 -0 0
-31.4449836016 126.6671117544 0 -0 0
-29.6672075987 126.6671117544 0 -0 0
-27.8894315958 126.6671117544 0 -0 0
-26.1116555929 126.6671117544 0 -0 0
-24.33387959 126.6671117544 0 -0 0
-22.5561035872 126.6671117544 0 -0 0
-20.7783275843 126.6671117544 0 -0 0
-19.0005515814 126.6671117544 0 -0 0
-17.2227755785 126.6671117544 0 -0 0
-15.4449995756 126.6671117544 0 -0 0
-13.6672235727 126.6671117544 0 -0 0
-11.8894475698 126.6671117544 0 -0 0
-10.111671567 126.6671117544 0 -0 0
-8.3338955641 126.6671117544 0 -0 0
-6.5561195612 126.6671117544 0 -0 0
-4.7783435583 126.6671117544 0 -0 0
-3.0005675554 126.6671117544 0 -0 0
-1.2227915525 126.6671117544 0 -0 0
0.5549844503 126.6671117544 0 -0 0
2.3327604532 126.6671117544 0 -0 0
4.1105364561 126.6671117544 0 -0 0
5.888312459 126.6671117544 0 -0 0
7.6660884619 126.6671117544 0 -0 0
9.4438644648 126.6671117544 0 -0 0
11.2216404676 126.6671117544 0 -0 0
12.9994164705 126.6671117544 0 -0 0
14.7771924734 126.6671117544 0 -0 0
16.5549684763 126.6671117544 0 -0 0
18.3327444792 126.6671117544 0 -0 0
20.1105204821 126.6671117544 0 -0 0
21.8882964849 126.6671117544 0 -0 0
23.6660724878 126.6671117544 0 -0 0
25.4438484907 126.6671117544 0 -0 0
27.2216244936 126.6671117544 0 -0 0
28.9994004965 126.6671117544 0 -0 0
30.7771764994 126.6671117544 0 -0 0
32.5549525023 126.6671117544 0 -0 0
34.3327285051 126.6671117544 0 -0 0
36.110504508 126.6671117544 0 -0 0
37.8882805109 126.6671117544 0 -0 0
39.6660565138 126.6671117544 0 -0 0
41.4438325167 126.6671117544 0 -0 0
43.2216085196 126.6671117544 0 -0 0
44.9993845224 126.6671117544 0 -0 0
46.7771605253 126.6671117544 0 -0 0
48.5549365282 126.6671117544 0 -0 0
50.3327125311 126.6671117544 0 -0 0
52.110488534 126.6671117544 0 -0 0
53.8882645369 126.6671117544 0 -0 0
-125.6671117544 124.8893357515 0 -0 0
-123.8893357515 124.8893357515 -10.2901442474 -0.5796973741 1
-122.1115597486 124.8893357515 -10.5809351523 -0.4418257029 1
-120.3337837458 124.8893357515 -10.464569102 -0.3574399291 1
-118.5560077429 124.8893357515 -9.8717322281 -0.1436381016 1
-116.77823174 124.8893357515 -10.9635264266 -0.4726683015 1
-115.0004557371 124.8893357515 -10.5018339605 -0.149726719 1
-113.2226797342 124.8893357515 -10.2884158934 -0.2750101881 1
-111.4449037313 124.8893357515 -10.5622590488 -0.0295023009 1
-109.6671277285 124.8893357515 -10.70363683 -0.0718462577 1
-107.8893517256 124.8893357515 -10.8888155689 0.0016137986 1
-106.1115757227 124.8893357515 -10.6063191881 -0.1621774547 1
-104.3337997198 124.8893357515 -10.6170029073 -0.3241229347 1
-102.5560237169 124.8893357515 -10.7733910205 -0.2210803887 1
-100.778247714 124.8893357515 -10.3214751383 -0.2126061559 1
-99.0004717112 124.8893357515 -11.1110644223 -0.3467375946 1
-97.2226957083 124.8893357515 -11.0064875504 0.024020827 1
-95.4449197054 124.8893357515 -10.6630319668 0.0627949524 1
-93.6671437025 124.8893357515 -10.545343518 0.0786379586 1
-91.8893676996 124.8893357515 -10.9335637563 0.1526722237 1
-90.1115916967 124.8893357515 -10.9000591775 -0.0427391728 1
-88.3338156939 124.8893357515 -10.8822544107 0.252250902 1
-86.556039691 124.8893357515 -10.9526314959 0.2868723956 1
-84.7782636881 124.8893357515 -11.2075873364 0.1649325111 1
-83.0004876852 124.8893357515 -10.9581459046 0.0312063119 1
-81.2227116823 124.8893357515 -11.078706113 0.4400887573 1
-79.4449356794 124.8893357515 -11.0274984353 -0.2200551182 1
-77.6671596766 124.8893357515 -10.9704620377 0.2872804991 1
-75.8893836737 124.8893357515 -10.8682392784 0.3108445366 1
-74.1116076708 124.8893357515 -11.0584054713 0.5750807931 1
-72.3338316679 124.8893357515 -10.7619770108 0.7413407144 1
-70.556055665 124.8893357515 -10.3854256678 0.4540659431 1
-68.7782796621 124.8893357515 0 -0 0
-67.0005036592 124.8893357515 0 -0 0
-65.2227276564 124.8893357515 0 -0 0
-63.4449516535 124.8893357515 0 -0 0
-61.6671756506 124.8893357515 0 -0 0
-59.8893996477 124.8893357515 0 -0 0
-58.1116236448 124.8893357515 -10.6849127565 0.7201980908 1
-56.3338476419 124.8893357515 -9.9652809987 0.9447881693 1
-54.5560716391 124.8893357515 -10.8210410383 0.910875487 1
-52.7782956362 124.8893357515 -10.908216951 0.5396502523 1
-51.0005196333 124.8893357515 -10.9482411618 0.5232101262 1
-49.2227436304 124.8893357515 -10.7349104432 0.6830535154 1
-47.4449676275 124.8893357515 -10.1882100245 0.5857058027 1
-45.6671916246 124.8893357515 -10.4972646336 1.2440840937 1
-43.8894156218 124.8893357515 -10.5159779675 0.9382069639 1
-42.1116396189 124.8893357515 -10.9396022557 0.853059397 1
-40.333863616 124.8893357515 -10.5289162794 1.0162019805 1
-38.5560876131 124.8893357515 -9.3362861575 0.6663814148 1
-36.7783116102 124.8893357515 -10.7729485504 0.1726420868 1
-35.0005356073 124.8893357515 -10.0574436495 0.9203778541 1
-33.2227596045 124.8893357515 -10.4822550176 1.3521398686 1
-31.4449836016 124.8893357515 -9.6613312629 1.0898668046 1
-29.6672075987 124.8893357515 -9.9055017162 1.2481508089 1
-27.8894315958 124.8893357515 -10.6314010841 1.3494091553 1
-26.1116555929 124.8893357515 -10.1318487875 1.004810882 1
-24.33387959 124.8893357515 -10.313063911 0.9282234643 1
-22.5561035872 124.8893357515 -9.6137234873 0.4958471466 1
-20.7783275843 124.8893357515 -9.7887225506 1.0244972205 1
-19.0005515814 124.8893357515 -10.3717005038 0.9207530229 1
-17.2227755785 124.8893357515 -10.4668487536 0.9241309741 1
-15.4449995756 124.8893357515 -10.0999680309 0.7458599233 1
-13.6672235727 124.8893357515 -10.3275709154 0.9901119974 1
-11.8894475698 124.8893357515 -9.5538454008 0.7030835201 1
-10.111671567 124.8893357515 -9.9395074747 0.888534328 1
-8.3338955641 124.8893357515 -10.0008432782 1.2187258329 1
-6.5561195612 124.8893357515 -10.2802208894 0.8795990099 1
-4.7783435583 124.8893357515 -9.792242264 0.4893346744 1
-3.0005675554 124.8893357515 -9.8251869535 0.4167452388 1
-1.2227915525 124.8893357515 -9.4101972756 0.733821587 1
0.5549844503 124.8893357515 -9.8966795216 1.0050614718 1
2.3327604532 124.8893357515 -9.5868330486 0.4392868697 1
4.1105364561 124.8893357515 -10.0758698791 0.8049103474 1
5.888312459 124.8893357515 -10.2039041088 1.1149859311 1
7.6660884619 124.8893357515 -8.780891703 1.1597971239 1
9.4438644648 124.8893357515 -9.7050957061 1.3935602228 1
11.2216404676 124.8893357515 0 -0 0
12.9994164705 124.8893357515 0 -0 0
14.7771924734 124.8893357515 0 -0 0
16.5549684763 124.8893357515 0 -0 0
18.3327444792 124.8893357515 0 -0 0
20.1105204821 124.8893357515 0 -0 0
21.8882964849 124.8893357515 0 -0 0
23.6660724878 124.8893357515 0 -0 0
25.4438484907 124.8893357515 0 -0 0
27.2216244936 124.8893357515 0 -0 0
28.9994004965 124.8893357515 0 -0 0
30.7771764994 124.8893357515 0 -0 0
32.5549525023 124.8893357515 0 -0 0
34.3327285051 124.8893357515 0 -0 0
36.110504508 124.8893357515 0 -0 0
37.8882805109 124.8893357515 -9.9925151035 0.7994775594 1
39.6660565138 124.8893357515 -9.6151497015 0.8804581751 1
41.4438325167 124.8893357515 0 -0 0
43.2216085196 124.8893357515 -9.3456596498 0.8142580647 1
44.9993845224 124.8893357515 -9.4539273522 0.3901626676 1
46.7771605253 124.8893357515 -9.9171892268 0.4285773755 1
48.5549365282 124.8893357515 -10.0168037037 0.9628463898 1
50.3327125311 124.8893357515 -9.7628444948 0.3898132738 1
52.110488534 124.8893357515 -10.5523772171 0.4834608484 1
53.8882645369 124.8893357515 0 -0 0
-125.6671117544 123.1115597486 0 -0 0
-123.8893357515 123.1115597486 -10.9140621383 -0.7229402597 1
-122.1115597486 123.1115597486 -10.7495491862 -0.3690558426 1
-120.3337837458 123.1115597486 -10.3064640904 -0.3193130415 1
-118.5560077429 123.1115597486 -10.2452099076 -0.4570658616 1
-116.77823174 123.1115597486 -11.0030272626 -0.1467425519 1
-115.0004557371 123.1115597486 -10.9275689312 -0.4166077724 1
-113.2226797342 123.1115597486 -10.0967089309 -0.3945129074 1
-111.4449037313 123.1115597486 -10.3978849952 0.0361465118 1
-109.6671277285 123.1115597486 -10.9232967322 -0.4675032868 1
-107.8893517256 123.1115597486 -10.8987231756 -0.2615413417 1
-106.1115757227 123.1115597486 -10.9872021556 0.1578873564 1
-104.3337997198 123.1115597486 -10.7051052865 -0.3883813318 1
-102.5560237169 123.1115597486 -10.6365439038 -0.1474570909 1
-100.778247714 123.1115597486 -11.0209172299 0.0026677079 1
-99.0004717112 123.1115597486 -11.047774734 -0.1646289393 1
-97.2226957083 123.1115597486 -10.9347680195 0.2670944128 1
-95.4449197054 123.1115597486 -10.7814292269 0.3138587745 1
-93.6671437025 123.1115597486 -10.6139700542 -0.1873166283 1
-91.8893676996 123.1115597486 -10.7455404646 0.1225770987 1
-90.1115916967 123.1115597486 -10.7932570677 0.2274267556 1
-88.3338156939 123.1115597486 -10.8681619536 0.325005011 1
-86.556039691 123.1115597486 -11.1981558504 0.2317326052 1
-84.7782636881 123.1115597486 -11.1560288329 0.2068640685 1
-83.0004876852 123.1115597486 -10.7758160142 -0.1534512001 1
-81.2227116823 123.1115597486 -10.962332903 0.7122522447 1
-79.4449356794 123.1115597486 -10.8391980628 0.5058335101 1
-77.6671596766 123.1115597486 -10.7920112782 0.1987750282 1
-75.8893836737 123.1115597486 -11.173308077 0.9006600128 1
-74.1116076708 123.1115597486 -10.9758769263 0.5054554774 1
-72.3338316679 123.1115597486 -10.7144673233 0.7593402253 1
-70.556055665 123.1115597486 -11.3389708784 0.6156605973 1
-68.7782796621 123.1115597486 0 -0 0
-67.0005036592 123.1115597486 0 -0 0
-65.2227276564 123.1115597486 0 -0 0
-63.4449516535 123.1115597486 0 -0 0
-61.6671756506 123.1115597486 0 -0 0
-59.8893996477 123.1115597486 0 -0 0
-58.1116236448 123.1115597486 -10.7484845374 0.9417438606 1
-56.3338476419 123.1115597486 -10.3366236527 1.0388896695 1
-54.5560716391 123.1115597486 -10.508042861 1.0184902238 1
-52.7782956362 123.1115597486 -10.3991493999 0.9777915684 1
-51.0005196333 123.1115597486 -10.9445911416 0.8722345323 1
-49.2227436304 123.1115597486 -10.2879662636 1.0948513947 1
-47.4449676275 123.1115597486 -10.2271115927 0.5092959459 1
-45.6671916246 123.1115597486 -10.0443256288 0.5864933708 1
-43.8894156218 123.1115597486 -10.7904139469 0.7531771469 1
-42.1116396189 123.1115597486 -10.9141645221 0.7836102102 1
-40.333863616 123.1115597486 -10.3312782132 1.053640104 1
-38.5560876131 123.1115597486 -9.9411470483 1.087240623 1
-36.7783116102 123.1115597486 -10.3616253599 0.7302918499 1
-35.0005356073 123.1115597486 -10.4070064657 1.4447550131 1
-33.2227596045 123.1115597486 -10.3672070698 1.7934171378 1
-31.4449836016 123.1115597486 -9.6500862224 1.0014443863 1
-29.6672075987 123.1115597486 0 -0 0
-27.8894315958 123.1115597486 -10.2119974449 0.8914340105 1
-26.1116555929 123.1115597486 -10.0027763999 1.3131566797 1
-24.33387959 123.1115597486 -9.6538450701 1.1961727464 1
-22.5561035872 123.1115597486 -9.7722738329 0.9763768097 1
-20.7783275843 123.1115597486 -9.4599185975 1.0609902623 1
-19.0005515814 123.1115597486 -9.7539950933 1.1860245735 1
-17.2227755785 123.1115597486 -10.969639387 1.142463466 1
-15.4449995756 123.1115597486 -10.6498244498 1.2797938632 1
-13.6672235727 123.1115597486 -9.7513417048 0.7900739963 1
-11.8894475698 123.1115597486 -9.528091924 1.0362004825 1
-10.111671567 123.1115597486 -9.9433364876 0.9351039456 1
-8.3338955641 123.1115597486 -10.1559197325 1.1586401148 1
-6.5561195612 123.1115597486 -9.739165902 0.8355281311 1
-4.7783435583 123.1115597486 0 -0 0
-3.0005675554 123.1115597486 -10.4364428973 0.5258033732 1
-1.2227915525 123.1115597486 -9.8805401033 0.3922117766 1
0.5549844503 123.1115597486 -9.6608759053 0.9896365926 1
2.3327604532 123.1115597486 -10.1441577609 1.2867044153 1
4.1105364561 123.1115597486 -10.420599891 0.9277824262 1
5.888312459 123.1115597486 -10.1676201305 1.1613020949 1
7.6660884619 123.1115597486 -9.1112335618 0.823731793 1
9.4438644648 123.1115597486 -9.199903706 0.7952719458 1
11.2216404676 123.1115597486 0 -0 0
12.9994164705 123.1115597486 0 -0 0
14.7771924734 123.1115597486 0 -0 0
16.5549684763 123.1115597486 0 -0 0
18.3327444792 123.1115597486 0 -0 0
20.1105204821 123.1115597486 0 -0 0
21.8882964849 123.1115597486 0 -0 0
23.6660724878 123.1115597486 0 -0 0
25.4438484907 123.1115597486 0 -0 0
27.2216244936 123.1115597486 0 -0 0
28.9994004965 123.1115597486 0 -0 0
30.7771764994 123.1115597486 0 -0 0
32.5549525023 123.1115597486 0 -0 0
34.3327285051 123.1115597486 0 -0 0
36.110504508 123.1115597486 0 -0 0
37.8882805109 123.1115597486 -9.7211850063 0.6870357461 1
39.6660565138 123.1115597486 -9.5527556929 0.8480633514 1
41.4438325167 123.1115597486 0 -0 0
43.2216085196 123.1115597486 -9.4424417454 0.6167717843 1
44.9993845224 123.1115597486 -9.2223980828 -0.1311816382 1
46.7771605253 123.1115597486 -9.5919164427 0.30735203 1
48.5549365282 123.1115597486 -10.0705201438 0.8611484373 1
50.3327125311 123.1115597486 -9.8511981799 0.3323050513 1
52.110488534 123.1115597486 -9.4522247732 0.6640201424 1
53.8882645369 123.1115597486 0 -0 0
-125.6671117544 121.3337837458 0 -0 0
-123.8893357515 121.3337837458 -10.2400821233 -0.6128282161 1
-122.1115597486 121.3337837458 -10.4682005069 -0.3071429665 1
-120.3337837458 121.3337837458 -10.3349826471 -0.3880863517 1
-118.5560077429 121.3337837458 -10.574079014 -0.4091201477 1
-116.77823174 121.3337837458 -10.9045697948 0.1358855677 1
-115.0004557371 121.3337837458 -10.9371715342 -0.5907419427 1
-113.2226797342 121.3337837458 -9.9954219458 -0.5667211157 1
-111.4449037313 121.3337837458 -10.2571365525 -0.1463416081 1
-109.6671277285 121.3337837458 -10.8265955413 -0.1248481588 1
-107.8893517256 121.3337837458 -10.7954701341 -0.309624522 1
-106.1115757227 121.3337837458 -10.7922296494 -0.3257152542 1
-104.3337997198 121.3337837458 -10.751431474 -0.623864193 1
-102.5560237169 121.3337837458 -10.867138115 -0.3210413955 1
-100.778247714 121.3337837458 -11.1876718871 0.1080371597 1
-99.0004717112 121.3337837458 -10.825369799 -0.1724931648 1
-97.2226957083 121.3337837458 -10.9319764486 -0.1801340073 1
-95.4449197054 121.3337837458 -10.6968816436 0.0623768253 1
-93.6671437025 121.3337837458 -10.8281878608 0.0456760858 1
-91.8893676996 121.3337837458 -10.5639773792 0.120175732 1
-90.1115916967 121.3337837458 -10.8293083554 0.3637046754 1
-88.3338156939 121.3337837458 -10.7994509329 0.2804214969 1
-86.556039691 121.3337837458 -10.9214838936 0.3292664703 1
-84.7782636881 121.3337837458 -10.9873539414 -0.0950079195 1
-83.0004876852 121.3337837458 -10.5823549228 -0.0076394105 1
-81.2227116823 121.3337837458 -11.0515958712 0.6356333243 1
-79.4449356794 121.3337837458 -11.0861815662 0.6131589947 1
-77.6671596766 121.3337837458 -11.2952343581 0.3434140573 1
-75.8893836737 121.3337837458 -11.1933230462 0.1556291839 1
-74.1116076708 121.3337837458 -10.8007511362 0.310562444 1
-72.3338316679 121.3337837458 -10.9642860718 0.3431090536 1
-70.556055665 121.3337837458 -10.8058395421 0.5992935003 1
-68.7782796621 121.3337837458 0 -0 0
-67.0005036592 121.3337837458 0 -0 0
-65.2227276564 121.3337837458 0 -0 0
-63.4449516535 121.3337837458 0 -0 0
-61.6671756506 121.3337837458 0 -0 0
-59.8893996477 121.3337837458 -11.4170131492 1.1862823231 1
-58.1116236448 121.3337837458 -10.7497489421 0.6738475603 1
-56.3338476419 121.3337837458 -10.9760408837 0.6270316487 1
-54.5560716391 121.3337837458 -10.8590705538 0.7374916543 1
-52.7782956362 121.3337837458 -10.6608375157 0.68284302 1
-51.0005196333 121.3337837458 -10.8456210386 0.9853751332 1
-49.2227436304 121.3337837458 -10.4864033535 1.4553843185 1
-47.4449676275 121.3337837458 -10.8330364164 1.3614890179 1
-45.6671916246 121.3337837458 -9.976110776 0.507317002 1
-43.8894156218 121.3337837458 -10.3124682231 0.8303273178 1
-42.1116396189 121.3337837458 -10.1261768653 0.8815564746 1
-40.333863616 121.3337837458 -10.5309646725 0.8369185468 1
-38.5560876131 121.3337837458 -9.9703858719 1.0789654302 1
-36.7783116102 121.3337837458 -9.9173968584 0.845899687 1
-35.0005356073 121.3337837458 -10.6443279404 1.2220722813 1
-33.2227596045 121.3337837458 -9.335534388 0.8961751705 1
-31.4449836016 121.3337837458 -9.3377925605 1.0640417307 1
-29.6672075987 121.3337837458 0 -0 0
-27.8894315958 121.3337837458 -10.5895898097 0.7988589605 1
-26.1116555929 121.3337837458 -10.179360623 0.9340772432 1
-24.33387959 121.3337837458 0 -0 0
-22.5561035872 121.3337837458 -11.0727542461 1.2523292157 1
-20.7783275843 121.3337837458 -10.2223575453 0.6041449198 1
-19.0005515814 121.3337837458 -10.4181885007 0.7213550999 1
-17.2227755785 121.3337837458 -10.7521868234 0.7809883244 1
-15.4449995756 121.3337837458 -10.4471753025 1.1465931868 1
-13.6672235727 121.3337837458 -10.0145713061 0.8742865051 1
-11.8894475698 121.3337837458 -10.8306894635 1.1229632799 1
-10.111671567 121.3337837458 0 -0 0
-8.3338955641 121.3337837458 -10.1732949167 1.4432214032 1
-6.5561195612 121.3337837458 -9.5708439842 0.6421500923 1
-4.7783435583 121.3337837458 -9.6601255677 0.5376355099 1
-3.0005675554 121.3337837458 -9.8814751614 0.555729529 1
-1.2227915525 121.3337837458 -10.3078831449 0.6375707418 1
0.5549844503 121.3337837458 -9.7934164565 1.2989117208 1
2.3327604532 121.3337837458 -10.0272726316 1.8738378641 1
4.1105364561 121.3337837458 -10.2531600495 1.094867146 1
5.888312459 121.3337837458 -9.8271644654 1.1638781586 1
7.6660884619 121.3337837458 -9.4476468546 0.8185581865 1
9.4438644648 121.3337837458 -9.3649765473 0.6576422728 1
11.2216404676 121.3337837458 0 -0 0
12.9994164705 121.3337837458 0 -0 0
14.7771924734 121.3337837458 0 -0 0
16.5549684763 121.3337837458 0 -0 0
18.3327444792 121.3337837458 0 -0 0
20.1105204821 121.3337837458 0 -0 0
21.8882964849 121.3337837458 0 -0 0
23.6660724878 121.3337837458 0 -0 0
25.4438484907 121.3337837458 0 -0 0
27.2216244936 121.3337837458 0 -0 0
28.9994004965 121.3337837458 0 -0 0
30.7771764994 121.3337837458 0 -0 0
32.5549525023 121.3337837458 0 -0 0
34.3327285051 121.3337837458 0 -0 0
36.110504508 121.3337837458 -9.2648093408 0.4712163124 1
37.8882805109 121.3337837458 -9.6842681097 0.7055235492 1
39.6660565138 121.3337837458 -9.6193639068 0.7686091858 1
41.4438325167 121.3337837458 -9.2192220354 0.7999357809 1
43.2216085196 121.3337837458 -9.6649497803 0.8767150788 1
44.9993845224 121.3337837458 -9.4340119029 -0.0398609693 1
46.7771605253 121.3337837458 -9.1084283874 0.438341788 1
48.5549365282 121.3337837458 -9.2284795405 0.4267416259 1
50.3327125311 121.3337837458 -9.5754290625 0.2405075457 1
52.110488534 121.3337837458 -9.0422440283 0.6134854774 1
53.8882645369 121.3337837458 0 -0 0
-125.6671117544 119.5560077429 0 -0 0
-123.8893357515 119.5560077429 -9.8940891385 -0.0240623533 1
-122.1115597486 119.5560077429 -10.1739063559 -0.2786258417 1
-120.3337837458 119.5560077429 -10.3401634133 -0.2436392029 1
-118.5560077429 119.5560077429 -10.4734915325 -0.2629145741 1
-116.77823174 119.5560077429 -10.6556503058 0.0551097197 1
-115.0004557371 119.5560077429 -10.3723964276 -0.1100275591 1
-113.2226797342 119.5560077429 -9.5904529979 -0.0747688513 1
-111.4449037313 119.5560077429 -9.8651352713 -0.3555096713 1
-109.6671277285 119.5560077429 -10.2825091327 -0.4342765047 1
-107.8893517256 119.5560077429 -10.985685013 -0.3614436389 1
-106.1115757227 119.5560077429 -10.7011316475 -0.5231886471 1
-104.3337997198 119.5560077429 -10.4281977753 -0.5800252888 1
-102.5560237169 119.5560077429 -10.8604344786 -0.2481498202 1
-100.778247714 119.5560077429 -11.0236257482 0.1030826404 1
-99.0004717112 119.5560077429 -10.5355547625 -0.3270097298 1
-97.2226957083 119.5560077429 -10.8639004942 -0.4716673741 1
-95.4449197054 119.5560077429 -10.2760510743 0.0364171488 1
-93.6671437025 119.5560077429 -11.0570873687 0.273754375 1
-91.8893676996 119.5560077429 -10.9601520553 -0.3335723199 1
-90.1115916967 119.5560077429 -10.902761968 0.383216317 1
-88.3338156939 119.5560077429 -10.9136368515 0.1382582955 1
-86.556039691 119.5560077429 -10.972602075 0.4131925907 1
-84.7782636881 119.5560077429 -10.8567608314 0.1003748381 1
-83.0004876852 119.5560077429 -10.8028840138 -0.0859709336 1
-81.2227116823 119.5560077429 -11.0316589428 0.0346787713 1
-79.4449356794 119.5560077429 -11.0014750374 0.596363747 1
-77.6671596766 119.5560077429 -11.1762664691 0.5390832033 1
-75.8893836737 119.5560077429 -11.0538748069 -0.2138490816 1
-74.1116076708 119.5560077429 -10.7595183664 -0.0075635176 1
-72.3338316679 119.5560077429 -11.2682350917 0.4611354407 1
-70.556055665 119.5560077429 -10.8109093327 0.3819805511 1
-68.7782796621 119.5560077429 0 -0 0
-67.0005036592 119.5560077429 0 -0 0
-65.2227276564 119.5560077429 0 -0 0
-63.4449516535 119.5560077429 0 -0 0
-61.6671756506 119.5560077429 0 -0 0
-59.8893996477 119.5560077429 -11.0191265864 0.945832055 1
-58.1116236448 119.5560077429 -11.0243875413 0.5290438579 1
-56.3338476419 119.5560077429 -10.9666008061 0.8658423432 1
-54.5560716391 119.5560077429 -10.4883035406 0.7915918549 1
-52.7782956362 119.5560077429 -10.598321792 0.7440871791 1
-51.0005196333 119.5560077429 -10.1292884752 0.9668672829 1
-49.2227436304 119.5560077429 -10.7063066859 0.9890122659 1
-47.4449676275 119.5560077429 -10.5437569263 1.3426217502 1
-45.6671916246 119.5560077429 -10.8031868695 0.7473262319 1
-43.8894156218 119.5560077429 -10.437856224 0.9348791307 1
-42.1116396189 119.5560077429 -10.1389326046 0.9858834727 1
-40.333863616 119.5560077429 -10.0044489081 1.5200923454 1
-38.5560876131 119.5560077429 0 -0 0
-36.7783116102 119.5560077429 0 -0 0
-35.0005356073 119.5560077429 -10.7855431962 1.1087999417 1
-33.2227596045 119.5560077429 -10.3405457418 0.7974585212 1
-31.4449836016 119.5560077429 -9.763802464 0.9686829854 1
-29.6672075987 119.5560077429 0 -0 0
-27.8894315958 119.5560077429 -10.052961671 0.6468468621 1
-26.1116555929 119.5560077429 0 -0 0
-24.33387959 119.5560077429 0 -0 0
-22.5561035872 119.5560077429 0 -0 0
-20.7783275843 119.5560077429 -10.3140533829 0.7670841676 1
-19.0005515814 119.5560077429 -9.8331700302 0.6238842402 1
-17.2227755785 119.5560077429 -9.9971230929 0.4991878673 1
-15.4449995756 119.5560077429 -10.133343735 1.096843226 1
-13.6672235727 119.5560077429 -10.1418193996 0.9097227737 1
-11.8894475698 119.5560077429 -10.0807212986 0.8184064007 1
-10.111671567 119.5560077429 0 -0 0
-8.3338955641 119.5560077429 -10.6670091857 1.2295040603 1
-6.5561195612 119.5560077429 -10.0752212093 1.1148699438 1
-4.7783435583 119.5560077429 -9.5209436696 0.6041306004 1
-3.0005675554 119.5560077429 -9.4449018218 0.475224318 1
-1.2227915525 119.5560077429 -9.8546119296 0.7219278767 1
0.5549844503 119.5560077429 -10.2047074282 1.2228297786 1
2.3327604532 119.5560077429 -9.6076377338 1.5880079223 1
4.1105364561 119.5560077429 -9.9296872165 1.1542984666 1
5.888312459 119.5560077429 -10.2691892083 0.952350255 1
7.6660884619 119.5560077429 -9.6437613346 0.5391777114 1
9.4438644648 119.5560077429 -9.6866508612 0.5923528775 1
11.2216404676 119.5560077429 -9.6974462719 -0.0945926563 1
12.9994164705 119.5560077429 0 -0 0
14.7771924734 119.5560077429 0 -0 0
16.5549684763 119.5560077429 0 -0 0
18.3327444792 119.5560077429 0 -0 0
20.1105204821 119.5560077429 0 -0 0
21.8882964849 119.5560077429 0 -0 0
23.6660724878 119.5560077429 0 -0 0
25.4438484907 119.5560077429 0 -0 0
27.2216244936 119.5560077429 0 -0 0
28.9994004965 119.5560077429 0 -0 0
30.7771764994 119.5560077429 0 -0 0
32.5549525023 119.5560077429 0 -0 0
34.3327285051 119.5560077429 0 -0 0
36.110504508 119.5560077429 -9.3505482998 0.8562640832 1
37.8882805109 119.5560077429 -9.3366756457 0.8153277254 1
39.6660565138 119.5560077429 -9.2074929986 0.8864265094 1
41.4438325167 119.5560077429 -9.2854020987 1.0782809619 1
43.2216085196 119.5560077429 -9.4691689428 1.0727937602 1
44.9993845224 119.5560077429 -9.4418560812 0.1337491102 1
46.7771605253 119.5560077429 -8.6332269804 0.3458254476 1
48.5549365282 119.5560077429 -9.138481986 0.6996955453 1
50.3327125311 119.5560077429 -9.0944426099 0.9626602374 1
52.110488534 119.5560077429 -8.9939675359 0.6622416705 1
53.8882645369 119.5560077429 0 -0 0
-125.6671117544 117.77823174 0 -0 0
-123.8893357515 117.77823174 -10.0861054005 -0.002321178 1
-122.1115597486 117.77823174 -10.3135421796 -0.2186904775 1
-120.3337837458 117.77823174 -10.386927775 -0.1497868606 1
-118.5560077429 117.77823174 -10.2807134774 -0.5825168679 1
-116.77823174 117.77823174 -10.4269319385 -0.3370590987 1
-115.0004557371 117.77823174 -10.1925846073 -0.3323480095 1
-113.2226797342 117.77823174 0 -0 0
-111.4449037313 117.77823174 -10.0098458975 -0.2867292014 1
-109.6671277285 117.77823174 -10.0333412018 -0.6922208081 1
-107.8893517256 117.77823174 -10.9078260309 -0.4838288575 1
-106.1115757227 117.77823174 -11.2260486486 -0.373735429 1
-104.3337997198 117.77823174 -10.5382274823 -0.3131428035 1
-102.5560237169 117.77823174 -10.9671814586 -0.3090159466 1
-100.778247714 117.77823174 -11.4508112761 0.1731260832 1
-99.0004717112 117.77823174 -10.9975286053 -0.5301392936 1
-97.2226957083 117.77823174 -10.7666974076 -0.4539184531 1
-95.4449197054 117.77823174 -10.7537469242 0.1715609706 1
-93.6671437025 117.77823174 -11.1263410955 0.0063506628 1
-91.8893676996 117.77823174 -11.1551066622 -0.0334315498 1
-90.1115916967 117.77823174 -11.0384384721 0.247486831 1
-88.3338156939 117.77823174 -10.9804197623 0.1270504855 1
-86.556039691 117.77823174 -10.8162268493 0.0976670358 1
-84.7782636881 117.77823174 -10.888494098 -0.20746978 1
-83.0004876852 117.77823174 0 -0 0
-81.2227116823 117.77823174 -11.0471747503 -0.0295137565 1
-79.4449356794 117.77823174 -10.8214219349 0.6555545013 1
-77.6671596766 117.77823174 -11.3187919518 0.4845548521 1
-75.8893836737 117.77823174 -11.370359763 0.843776117 1
-74.1116076708 117.77823174 -10.8165733793 0.3650836355 1
-72.3338316679 117.77823174 -11.2005915838 0.7879418347 1
-70.556055665 117.77823174 -10.9921638346 0.2544804357 1
-68.7782796621 117.77823174 0 -0 0
-67.0005036592 117.77823174 0 -0 0
-65.2227276564 117.77823174 0 -0 0
-63.4449516535 117.77823174 0 -0 0
-61.6671756506 117.77823174 0 -0 0
-59.8893996477 117.77823174 -11.0031819123 1.0226314001 1
-58.1116236448 117.77823174 -11.1045906125 0.5502924452 1
-56.3338476419 117.77823174 -10.681640053 0.5845760005 1
-54.5560716391 117.77823174 -10.8005929066 0.6734408888 1
-52.7782956362 117.77823174 -10.660112953 1.1057370177 1
-51.0005196333 117.77823174 -10.7494647017 0.7827080867 1
-49.2227436304 117.77823174 -10.8462510931 0.8532412536 1
-47.4449676275 117.77823174 0 -0 0
-45.6671916246 117.77823174 -11.0378664113 1.2937839365 1
-43.8894156218 117.77823174 -10.4148119815 0.717231107 1
-42.1116396189 117.77823174 -10.2469812198 0.9372547225 1
-40.333863616 117.77823174 -9.7109552127 1.2317622328 1
-38.5560876131 117.77823174 -9.9495052937 0.6986831623 1
-36.7783116102 117.77823174 -10.2107946137 0.6494472687 1
-35.0005356073 117.77823174 -10.3065070486 1.2212446188 1
-33.2227596045 117.77823174 -10.3708914566 0.9938722771 1
-31.4449836016 117.77823174 -10.2702789161 1.321025201 1
-29.6672075987 117.77823174 0 -0 0
-27.8894315958 117.77823174 0 -0 0
-26.1116555929 117.77823174 -9.9737294565 0.324264697 1
-24.33387959 117.77823174 -10.7190645731 0.8451679646 1
-22.5561035872 117.77823174 -9.5136436293 0.9735859548 1
-20.7783275843 117.77823174 -9.4401978923 0.1066667912 1
-19.0005515814 117.77823174 -9.683742587 0.5682590214 1
-17.2227755785 117.77823174 -9.5261473468 0.8351014124 1
-15.4449995756 117.77823174 0 -0 0
-13.6672235727 117.77823174 -10.0090511697 0.8587169998 1
-11.8894475698 117.77823174 -10.2369576259 0.773566569 1
-10.111671567 117.77823174 -9.8760080069 0.5688518454 1
-8.3338955641 117.77823174 -10.165313272 1.114543461 1
-6.5561195612 117.77823174 -10.0896652083 1.1031151319 1
-4.7783435583 117.77823174 -9.2899413548 0.918307266 1
-3.0005675554 117.77823174 -9.798068836 1.0429205862 1
-1.2227915525 117.77823174 -10.0656902034 0.9257562282 1
0.5549844503 117.77823174 -10.1367789638 0.7221713069 1
2.3327604532 117.77823174 -9.800487386 1.2620463741 1
4.1105364561 117.77823174 -9.6694088477 0.9711802922 1
5.888312459 117.77823174 -9.9640051384 1.2989604068 1
7.6660884619 117.77823174 -9.3388135351 0.4365131981 1
9.4438644648 117.77823174 -9.9172923266 1.1575317917 1
11.2216404676 117.77823174 -9.6921924768 0.837729026 1
12.9994164705 117.77823174 0 -0 0