TITLE = "B00023"
VARIABLES = "x", "y", "Vx", "Vy", "isValid"
ZONE T="Frame 0", I=102, J=78, F=POINT
-125.6671117544 126.6671117544 0 -0 0
-123.8893357515 126.6671117544 0 -0 0
-122.1115597486 126.6671117544 0 -0 0
-120.3337837458 126.6671117544 0 -0 0
-118.5560077429 126.6671117544 0 -0 0
-116.77823174 126.6671117544 0 -0 0
-115.0004557371 126.6671117544 0 -0 0
-113.2226797342 126.6671117544 0 -0 0
-111.4449037313 126.6671117544 0 -0 0
-109.6671277285 126.6671117544 0 -0 0
-107.8893517256 126.6671117544 0 -0 0
-106.1115757227 126.6671117544 0 -0 0
-104.3337997198 126.6671117544 0 -0 0
-102.5560237169 126.6671117544 0 -0 0
-100.778247714 126.6671117544 0 -0 0
-99.0004717112 126.6671117544 0 -0 0
-97.2226957083 126.6671117544 0 -0 0
-95.4449197054 126.6671117544 0 -0 0
-93.6671437025 126.6671117544 0 -0 0
-91.8893676996 126.6671117544 0 -0 0
-90.1115916967 126.6671117544 0 -0 0
-88.3338156939 126.6671117544 0 -0 0
-86.556039691 126.6671117544 0 -0 0
-84.7782636881 126.6671117544 0 -0 0
-83.0004876852 126.6671117544 0 -0 0
-81.2227116823 126.6671117544 0 -0 0
-79.4449356794 126.6671117544 0 -0 0
-77.6671596766 126.6671117544 0 -0 0
-75.8893836737 126.6671117544 0 -0 0
-74.1116076708 126.6671117544 0 -0 0
-72.3338316679 126.6671117544 0 -0 0
-70.556055665 126.6671117544 0 -0 0
-68.7782796621 126.6671117544 0 -0 0
-67.0005036592 126.6671117544 0 -0 0
-65.2227276564 126.6671117544 0 -0 0
-63.4449516535 126.6671117544 0 -0 0
-61.6671756506 126.6671117544 0 -0 0
-59.8893996477 126.6671117544 0 -0 0
-58.1116236448 126.6671117544 0 -0 0
-56.3338476419 126.6671117544 0 -0 0
-54.5560716391 126.6671117544 0 -0 0
-52.7782956362 126.6671117544 0 -0 0
-51.0005196333 126.6671117544 0 -0 0
-49.2227436304 126.6671117544 0 -0 0
-47.4449676275 126.6671117544 0 -0 0
-45.6671916246 126.6671117544 0 -0 0
-43.8894156218 126.6671117544 0 -0 0
-42.1116396189 126.6671117544 0 -0 0
-40.333863616 126.6671117544 0 -0 0
-38.5560876131 126.6671117544 0 -0 0
-36.7783116102 126.6671117544 0 -0 0
-35.0005356073 126.6671117544 0 -0 0
-33.2227596045 126.6671117544 0 -0 0
-31.4449836016 126.6671117544 0 -0 0
-29.6672075987 126.6671117544 0 -0 0
-27.8894315958 126.6671117544 0 -0 0
-26.1116555929 126.6671117544 0 -0 0
-24.33387959 126.6671117544 0 -0 0
-22.5561035872 126.6671117544 0 -0 0
-20.7783275843 126.6671117544 0 -0 0
-19.0005515814 126.6671117544 0 -0 0
-17.2227755785 126.6671117544 0 -0 0
-15.4449995756 126.6671117544 0 -0 0
-13.6672235727 126.6671117544 0 -0 0
-11.8894475698 126.6671117544 0 -0 0
-10.111671567 126.6671117544 0 -0 0
-8.3338955641 126.6671117544 0 -0 0
-6.5561195612 126.6671117544 0 -0 0
-4.7783435583 126.6671117544 0 -0 0
-3.0005675554 126.6671117544 0 -0 0
-1.2227915525 126.6671117544 0 -0 0
0.5549844503 126.6671117544 0 -0 0
2.3327604532 126.6671117544 0 -0 0
4.1105364561 126.6671117544 0 -0 0
5.888312459 126.6671117544 0 -0 0
7.6660884619 126.6671117544 0 -0 0
9.4438644648 126.6671117544 0 -0 0
11.2216404676 126.6671117544 0 -0 0
12.9994164705 126.6671117544 0 -0 0
14.7771924734 126.6671117544 0 -0 0
16.5549684763 126.6671117544 0 -0 0
18.3327444792 126.6671117544 0 -0 0
20.1105204821 126.6671117544 0 -0 0
21.8882964849 126.6671117544 0 -0 0
23.6660724878 126.6671117544 0 -0 0
25.4438484907 126.6671117544 0 -0 0
27.2216244936 126.6671117544 0 -0 0
28.9994004965 126.6671117544 0 -0 0
30.7771764994 126.6671117544 0 -0 0
32.5549525023 126.6671117544 0 -0 0
34.3327285051 126.6671117544 0 -0 0
36.110504508 126.6671117544 0 -0 0
37.8882805109 126.6671117544 0 -0 0
39.6660565138 126.6671117544 0 -0 0
41.4438325167 126.6671117544 0 -0 0
43.2216085196 126.6671117544 0 -0 0
44.9993845224 126.6671117544 0 -0 0
46.7771605253 126.6671117544 0 -0 0
48.5549365282 126.6671117544 0 -0 0
50.3327125311 126.6671117544 0 -0 0
52.110488534 126.6671117544 0 -0 0
53.8882645369 126.6671117544 0 -0 0
-125.6671117544 124.8893357515 0 -0 0
-123.8893357515 124.8893357515 -10.4423611135 -0.5643483878 1
-122.1115597486 124.8893357515 -10.5755975885 -0.4948920413 1
-120.3337837458 124.8893357515 -10.7184144714 -0.4083812656 1
-118.5560077429 124.8893357515 -10.9828884303 -0.5380894355 1
-116.77823174 124.8893357515 -10.8668717738 -0.6158968678 1
-115.0004557371 124.8893357515 -10.5966958219 -0.2969317881 1
-113.2226797342 124.8893357515 -10.8681691133 -0.38941233 1
-111.4449037313 124.8893357515 -10.6670707592 -0.3539030324 1
-109.6671277285 124.8893357515 -10.5537074912 -0.3067162478 1
-107.8893517256 124.8893357515 -10.8091287128 -0.5945408848 1
-106.1115757227 124.8893357515 -10.5461389618 -0.8876722989 1
-104.3337997198 124.8893357515 -10.8564357806 -0.1632156126 1
-102.5560237169 124.8893357515 -10.6714081115 0.1195284942 1
-100.778247714 124.8893357515 -10.444596375 0.0592294168 1
-99.0004717112 124.8893357515 -10.2960982622 -0.3144959887 1
-97.2226957083 124.8893357515 -10.5487372206 -0.1836050347 1
-95.4449197054 124.8893357515 -10.6062934131 0.2103293682 1
-93.6671437025 124.8893357515 -11.1327060776 -0.0851618863 1
-91.8893676996 124.8893357515 -11.0699626752 -0.2090721231 1
-90.1115916967 124.8893357515 -10.6601659349 0.4927928144 1
-88.3338156939 124.8893357515 -11.2305528221 0.5220745962 1
-86.556039691 124.8893357515 -10.5798504562 0.1885008444 1
-84.7782636881 124.8893357515 -10.6176157785 0.3126101211 1
-83.0004876852 124.8893357515 -10.5373232109 0.6753396439 1
-81.2227116823 124.8893357515 -10.8639864107 0.1456227732 1
-79.4449356794 124.8893357515 -10.6201689311 0.4673557967 1
-77.6671596766 124.8893357515 -10.6073215475 0.4564587182 1
-75.8893836737 124.8893357515 0 -0 0
-74.1116076708 124.8893357515 -10.8597449985 0.1337519741 1
-72.3338316679 124.8893357515 -10.4428852043 0.4322617623 1
-70.556055665 124.8893357515 -10.7658389584 -0.172884085 1
-68.7782796621 124.8893357515 0 -0 0
-67.0005036592 124.8893357515 0 -0 0
-65.2227276564 124.8893357515 0 -0 0
-63.4449516535 124.8893357515 0 -0 0
-61.6671756506 124.8893357515 0 -0 0
-59.8893996477 124.8893357515 0 -0 0
-58.1116236448 124.8893357515 -10.6514511359 0.3331813998 1
-56.3338476419 124.8893357515 -11.0583123951 0.7920744193 1
-54.5560716391 124.8893357515 -10.4290010947 0.5533639608 1
-52.7782956362 124.8893357515 -10.8431552345 0.8547791593 1
-51.0005196333 124.8893357515 -10.5678937406 0.8920927039 1
-49.2227436304 124.8893357515 -10.4611940147 0.0984660594 1
-47.4449676275 124.8893357515 -10.7448660199 0.2335067813 1
-45.6671916246 124.8893357515 -10.9154940803 0.8992796207 1
-43.8894156218 124.8893357515 -10.9206211486 0.2237967826 1
-42.1116396189 124.8893357515 -10.4605424811 0.522007295 1
-40.333863616 124.8893357515 -10.8651097692 0.6639771842 1
-38.5560876131 124.8893357515 -10.7460416443 0.8662633341 1
-36.7783116102 124.8893357515 -10.3385725257 0.9949233225 1
-35.0005356073 124.8893357515 -10.2722106059 1.1503262595 1
-33.2227596045 124.8893357515 -9.8293768158 0.948449645 1
-31.4449836016 124.8893357515 0 -0 0
-29.6672075987 124.8893357515 0 -0 0
-27.8894315958 124.8893357515 0 -0 0
-26.1116555929 124.8893357515 0 -0 0
-24.33387959 124.8893357515 0 -0 0
-22.5561035872 124.8893357515 0 -0 0
-20.7783275843 124.8893357515 -10.1686353774 1.2152104153 1
-19.0005515814 124.8893357515 -10.1772757154 1.3631056805 1
-17.2227755785 124.8893357515 -9.7902117703 0.4482007087 1
-15.4449995756 124.8893357515 0 -0 0
-13.6672235727 124.8893357515 -9.764124651 0.8346460549 1
-11.8894475698 124.8893357515 -9.9190464555 0.8848528051 1
-10.111671567 124.8893357515 -10.0845832461 0.8178894696 1
-8.3338955641 124.8893357515 -10.2024535515 1.1264085324 1
-6.5561195612 124.8893357515 -9.5312779949 0.7541107731 1
-4.7783435583 124.8893357515 -9.7508777556 1.1448247384 1
-3.0005675554 124.8893357515 -10.9255441652 0.5649483715 1
-1.2227915525 124.8893357515 -8.9648747703 0.9357755264 1
0.5549844503 124.8893357515 -10.0161464423 1.2423299647 1
2.3327604532 124.8893357515 -10.1444584687 0.5670332791 1
4.1105364561 124.8893357515 -10.1736357189 1.027053237 1
5.888312459 124.8893357515 0 -0 0
7.6660884619 124.8893357515 -9.9776501137 0.690422289 1
9.4438644648 124.8893357515 -9.8645181043 1.1268323872 1
11.2216404676 124.8893357515 0 -0 0
12.9994164705 124.8893357515 0 -0 0
14.7771924734 124.8893357515 0 -0 0
16.5549684763 124.8893357515 0 -0 0
18.3327444792 124.8893357515 0 -0 0
20.1105204821 124.8893357515 0 -0 0
21.8882964849 124.8893357515 0 -0 0
23.6660724878 124.8893357515 0 -0 0
25.4438484907 124.8893357515 0 -0 0
27.2216244936 124.8893357515 0 -0 0
28.9994004965 124.8893357515 0 -0 0
30.7771764994 124.8893357515 0 -0 0
32.5549525023 124.8893357515 0 -0 0
34.3327285051 124.8893357515 0 -0 0
36.110504508 124.8893357515 -9.0067963042 0.5185076287 1
37.8882805109 124.8893357515 -9.1713192799 0.6381707255 1
39.6660565138 124.8893357515 -8.6819817415 0.6785156913 1
41.4438325167 124.8893357515 -9.4742909993 -0.1911599607 1
43.2216085196 124.8893357515 -9.743115198 0.5047810328 1
44.9993845224 124.8893357515 -10.2479878751 0.0376457551 1
46.7771605253 124.8893357515 0 -0 0
48.5549365282 124.8893357515 -9.0897716151 -0.1263602895 1
50.3327125311 124.8893357515 -8.750302558 0.5991073479 1
52.110488534 124.8893357515 -8.9810342358 0.654477681 1
53.8882645369 124.8893357515 0 -0 0
-125.6671117544 123.1115597486 0 -0 0
-123.8893357515 123.1115597486 -10.5983626024 -0.3659027063 1
-122.1115597486 123.1115597486 -10.838108355 -0.255040325 1
-120.3337837458 123.1115597486 -10.5183392399 -0.4517676762 1
-118.5560077429 123.1115597486 -11.0210912108 -0.499196459 1
-116.77823174 123.1115597486 -10.7433889718 -0.2292510497 1
-115.0004557371 123.1115597486 -10.9173334098 -0.3174171503 1
-113.2226797342 123.1115597486 -10.826307005 -0.2273050405 1
-111.4449037313 123.1115597486 -10.688602155 -0.5303684043 1
-109.6671277285 123.1115597486 -10.8479121458 -0.5823335793 1
-107.8893517256 123.1115597486 -10.8897055209 -0.4531938904 1
-106.1115757227 123.1115597486 -10.5109403956 -0.5215533694 1
-104.3337997198 123.1115597486 -10.4305418643 -0.2196928369 1
-102.5560237169 123.1115597486 -10.2306413297 0.3081954439 1
-100.778247714 123.1115597486 -10.4838430412 -0.0175212423 1
-99.0004717112 123.1115597486 -10.3901825792 0.1107163232 1
-97.2226957083 123.1115597486 -10.777180655 -0.0889994909 1
-95.4449197054 123.1115597486 -10.7863909059 0.1062973502 1
-93.6671437025 123.1115597486 -11.1875444443 0.0702568021 1
-91.8893676996 123.1115597486 -11.0533235092 0.1190230187 1
-90.1115916967 123.1115597486 -11.0170309393 -0.1626986815 1
-88.3338156939 123.1115597486 -11.3100757209 0.3527116567 1
-86.556039691 123.1115597486 -10.544997704 0.6317470337 1
-84.7782636881 123.1115597486 -10.9156573217 0.2545763758 1
-83.0004876852 123.1115597486 -10.8010038739 0.3600059692 1
-81.2227116823 123.1115597486 -10.8563376925 0.3356672511 1
-79.4449356794 123.1115597486 -10.9571771958 0.382573375 1
-77.6671596766 123.1115597486 -11.1237249374 0.3933057803 1
-75.8893836737 123.1115597486 -10.6577022787 0.8594673374 1
-74.1116076708 123.1115597486 -10.8878669074 0.2088129416 1
-72.3338316679 123.1115597486 -10.3145660182 0.4965101358 1
-70.556055665 123.1115597486 -10.7227954979 0.3085935238 1
-68.7782796621 123.1115597486 0 -0 0
-67.0005036592 123.1115597486 0 -0 0
-65.2227276564 123.1115597486 0 -0 0
-63.4449516535 123.1115597486 0 -0 0
-61.6671756506 123.1115597486 0 -0 0
-59.8893996477 123.1115597486 0 -0 0
-58.1116236448 123.1115597486 -11.1774771761 0.6427328927 1
-56.3338476419 123.1115597486 -10.1424666374 0.3469337707 1
-54.5560716391 123.1115597486 -10.1915235383 0.2462983192 1
-52.7782956362 123.1115597486 -10.6007761406 0.3992984576 1
-51.0005196333 123.1115597486 -10.8537988594 1.2125283879 1
-49.2227436304 123.1115597486 0 -0 0
-47.4449676275 123.1115597486 -10.4920308856 0.8016727265 1
-45.6671916246 123.1115597486 -10.1891923367 0.6447046768 1
-43.8894156218 123.1115597486 -10.944138648 0.5285627254 1
-42.1116396189 123.1115597486 -10.6009787604 0.6398532574 1
-40.333863616 123.1115597486 -11.0221651673 0.5360260071 1
-38.5560876131 123.1115597486 -10.6771766898 0.5880957139 1
-36.7783116102 123.1115597486 -10.2797383249 0.9431485957 1
-35.0005356073 123.1115597486 -10.4082794621 0.8035786413 1
-33.2227596045 123.1115597486 -9.8556500875 0.9331106823 1
-31.4449836016 123.1115597486 -9.839665319 1.2663307445 1
-29.6672075987 123.1115597486 -10.126898564 1.2417285491 1
-27.8894315958 123.1115597486 0 -0 0
-26.1116555929 123.1115597486 0 -0 0
-24.33387959 123.1115597486 -9.9873414971 1.1086109253 1
-22.5561035872 123.1115597486 -10.0110401371 1.1805015732 1
-20.7783275843 123.1115597486 -9.9464753045 1.1718483477 1
-19.0005515814 123.1115597486 -9.9743523513 1.2001535452 1
-17.2227755785 123.1115597486 -10.0018928917 0.7437492408 1
-15.4449995756 123.1115597486 -9.8936108699 1.1482714228 1
-13.6672235727 123.1115597486 -10.0434406887 0.891077457 1
-11.8894475698 123.1115597486 -10.1239143969 1.0763363847 1
-10.111671567 123.1115597486 -10.216909006 0.8271756135 1
-8.3338955641 123.1115597486 -10.4128359015 1.444286768 1
-6.5561195612 123.1115597486 -10.0596602957 1.0793563503 1
-4.7783435583 123.1115597486 -10.2430791779 0.869598327 1
-3.0005675554 123.1115597486 -10.8871337531 0.6521908696 1
-1.2227915525 123.1115597486 -9.7757921144 0.8253685027 1
0.5549844503 123.1115597486 -10.0061629427 0.5493015414 1
2.3327604532 123.1115597486 0 -0 0
4.1105364561 123.1115597486 -9.4174973159 0.2942769677 1
5.888312459 123.1115597486 -10.5277241877 0.6585486921 1
7.6660884619 123.1115597486 -10.9118082616 0.6845885573 1
9.4438644648 123.1115597486 0 -0 0
11.2216404676 123.1115597486 -9.4155312595 0.6918198643 1
12.9994164705 123.1115597486 0 -0 0
14.7771924734 123.1115597486 0 -0 0
16.5549684763 123.1115597486 0 -0 0
18.3327444792 123.1115597486 0 -0 0
20.1105204821 123.1115597486 0 -0 0
21.8882964849 123.1115597486 0 -0 0
23.6660724878 123.1115597486 0 -0 0
25.4438484907 123.1115597486 0 -0 0
27.2216244936 123.1115597486 0 -0 0
28.9994004965 123.1115597486 0 -0 0
30.7771764994 123.1115597486 0 -0 0
32.5549525023 123.1115597486 0 -0 0
34.3327285051 123.1115597486 0 -0 0
36.110504508 123.1115597486 -9.5592337985 0.3483428016 1
37.8882805109 123.1115597486 -9.0914827858 0.5438343868 1
39.6660565138 123.1115597486 -9.0595877098 0.3397941079 1
41.4438325167 123.1115597486 -9.3244153584 0.7434270539 1
43.2216085196 123.1115597486 -9.5329161366 0.6448722141 1
44.9993845224 123.1115597486 -9.126929078 -0.2619566049 1
46.7771605253 123.1115597486 -9.4732141789 0.2301946995 1
48.5549365282 123.1115597486 -9.2892797976 0.0820245014 1
50.3327125311 123.1115597486 -8.6423054927 0.7895914319 1
52.110488534 123.1115597486 -9.094909423 0.5816362236 1
53.8882645369 123.1115597486 0 -0 0
-125.6671117544 121.3337837458 0 -0 0
-123.8893357515 121.3337837458 -10.6620217317 -0.1688517363 1
-122.1115597486 121.3337837458 -10.8740672824 -0.308908551 1
-120.3337837458 121.3337837458 -10.8258960376 -0.5183787539 1
-118.5560077429 121.3337837458 -11.1967153168 -0.4348764884 1
-116.77823174 121.3337837458 -10.4657132236 -0.3315518498 1
-115.0004557371 121.3337837458 -10.8563634675 -0.4930906583 1
-113.2226797342 121.3337837458 -10.7118919756 -0.9218484585 1
-111.4449037313 121.3337837458 -10.8879163094 -0.7135681994 1
-109.6671277285 121.3337837458 -10.9405917276 -0.6751205568 1
-107.8893517256 121.3337837458 -10.781573853 -0.2254363562 1
-106.1115757227 121.3337837458 -10.7999392251 -0.4582543734 1
-104.3337997198 121.3337837458 -10.6730133185 -0.0703026242 1
-102.5560237169 121.3337837458 -10.7747778563 0.0929860174 1
-100.778247714 121.3337837458 -10.9292170964 0.0695465589 1
-99.0004717112 121.3337837458 -10.8132577176 -0.325695207 1
-97.2226957083 121.3337837458 -10.8025883178 -0.2746693859 1
-95.4449197054 121.3337837458 -10.9407084309 -0.5272467707 1
-93.6671437025 121.3337837458 -10.9922053609 -0.393585009 1
-91.8893676996 121.3337837458 -10.9772809455 -0.2384498451 1
-90.1115916967 121.3337837458 -11.2647311297 -0.423333604 1
-88.3338156939 121.3337837458 -11.3020604256 0.0919306761 1
-86.556039691 121.3337837458 -10.7955839735 0.2738388596 1
-84.7782636881 121.3337837458 -10.8859717321 0.2124285951 1
-83.0004876852 121.3337837458 -11.0683474446 0.2613809642 1
-81.2227116823 121.3337837458 -10.7491131599 0.3670439641 1
-79.4449356794 121.3337837458 -10.4598393976 0.1307406001 1
-77.6671596766 121.3337837458 -10.8334867622 0.2390727398 1
-75.8893836737 121.3337837458 -11.0056870948 0.2918426663 1
-74.1116076708 121.3337837458 -11.0629361358 0.398596806 1
-72.3338316679 121.3337837458 -10.7219599598 0.3864439143 1
-70.556055665 121.3337837458 -10.7017760214 0.3905063337 1
-68.7782796621 121.3337837458 0 -0 0
-67.0005036592 121.3337837458 0 -0 0
-65.2227276564 121.3337837458 0 -0 0
-63.4449516535 121.3337837458 0 -0 0
-61.6671756506 121.3337837458 0 -0 0
-59.8893996477 121.3337837458 -11.0309694627 0.3036447322 1
-58.1116236448 121.3337837458 -11.2990569272 0.3098063786 1
-56.3338476419 121.3337837458 -9.9711304818 0.435576708 1
-54.5560716391 121.3337837458 -10.0601786587 0.6027401847 1
-52.7782956362 121.3337837458 -10.3361267688 0.5025600907 1
-51.0005196333 121.3337837458 -11.0434552809 0.6888199459 1
-49.2227436304 121.3337837458 -11.1726844662 1.3947745096 1
-47.4449676275 121.3337837458 -10.2929966759 1.0673867472 1
-45.6671916246 121.3337837458 -10.1422733253 0.8186054406 1
-43.8894156218 121.3337837458 -10.561884596 0.7990837754 1
-42.1116396189 121.3337837458 -10.1723383794 0.8963699146 1
-40.333863616 121.3337837458 -10.3986682674 0.3452669902 1
-38.5560876131 121.3337837458 -10.214414563 0.6849751816 1
-36.7783116102 121.3337837458 -10.8944588524 0.316683996 1
-35.0005356073 121.3337837458 -10.6830433562 0.3458054004 1
-33.2227596045 121.3337837458 -9.5062218739 0.9957151864 1
-31.4449836016 121.3337837458 -10.0212914099 0.9697082559 1
-29.6672075987 121.3337837458 -9.9502871341 1.1147510926 1
-27.8894315958 121.3337837458 -9.9095211774 0.660993017 1
-26.1116555929 121.3337837458 0 -0 0
-24.33387959 121.3337837458 -10.5869049185 0.6660191335 1
-22.5561035872 121.3337837458 -9.8455835353 0.897495421 1
-20.7783275843 121.3337837458 -9.8034916003 1.6406461101 1
-19.0005515814 121.3337837458 -9.8931512165 1.4084481238 1
-17.2227755785 121.3337837458 -10.0511273533 0.8578549707 1
-15.4449995756 121.3337837458 -9.8617959826 0.8758430261 1
-13.6672235727 121.3337837458 -10.1050843597 0.8737266158 1
-11.8894475698 121.3337837458 -9.9155668365 1.0624508431 1
-10.111671567 121.3337837458 -9.5296341255 1.1130957676 1
-8.3338955641 121.3337837458 -10.0674113977 1.521063202 1
-6.5561195612 121.3337837458 -10.5259313964 1.5771896005 1
-4.7783435583 121.3337837458 -10.4484497309 0.8317492362 1
-3.0005675554 121.3337837458 -10.5786082466 0.5854781239 1
-1.2227915525 121.3337837458 -9.915479488 0.986615195 1
0.5549844503 121.3337837458 -9.8850850872 1.1938773434 1
2.3327604532 121.3337837458 -9.8737799052 0.9201931336 1
4.1105364561 121.3337837458 -9.861243253 1.0658560012 1
5.888312459 121.3337837458 -10.4592336861 0.9307708891 1
7.6660884619 121.3337837458 0 -0 0
9.4438644648 121.3337837458 -9.5328531311 0.748188261 1
11.2216404676 121.3337837458 -9.4541450074 0.8751614217 1
12.9994164705 121.3337837458 0 -0 0
14.7771924734 121.3337837458 0 -0 0
16.5549684763 121.3337837458 0 -0 0
18.3327444792 121.3337837458 0 -0 0
20.1105204821 121.3337837458 0 -0 0
21.8882964849 121.3337837458 0 -0 0
23.6660724878 121.3337837458 0 -0 0
25.4438484907 121.3337837458 0 -0 0
27.2216244936 121.3337837458 0 -0 0
28.9994004965 121.3337837458 0 -0 0
30.7771764994 121.3337837458 0 -0 0
32.5549525023 121.3337837458 0 -0 0
34.3327285051 121.3337837458 0 -0 0
36.110504508 121.3337837458 -9.6714837316 0.7433540248 1
37.8882805109 121.3337837458 -8.9303549446 0.510600445 1
39.6660565138 121.3337837458 0 -0 0
41.4438325167 121.3337837458 -9.4865727658 0.7616828824 1
43.2216085196 121.3337837458 -9.7533177847 0.473965641 1
44.9993845224 121.3337837458 -9.4806144552 0.0925535709 1
46.7771605253 121.3337837458 -9.2171571751 0.3465886727 1
48.5549365282 121.3337837458 -9.8103463067 0.2468009308 1
50.3327125311 121.3337837458 -9.1447739391 0.4883537942 1
52.110488534 121.3337837458 -9.1009479224 -0.1504512816 1
53.8882645369 121.3337837458 0 -0 0
-125.6671117544 119.5560077429 0 -0 0
-123.8893357515 119.5560077429 -10.3715587416 0.0579421009 1
-122.1115597486 119.5560077429 -10.9998576589 -0.4871137324 1
-120.3337837458 119.5560077429 -11.0085302156 -0.5743519346 1
-118.5560077429 119.5560077429 -11.5301494543 -0.71774947 1
-116.77823174 119.5560077429 -10.7988151506 -0.4789015451 1
-115.0004557371 119.5560077429 -10.6935266035 -0.5525720969 1
-113.2226797342 119.5560077429 -11.0172700736 -0.7907871035 1
-111.4449037313 119.5560077429 -11.0388322562 -0.72313214 1
-109.6671277285 119.5560077429 -11.1071294457 -0.2622315377 1
-107.8893517256 119.5560077429 -10.7131735637 -0.3654802834 1
-106.1115757227 119.5560077429 -10.898492633 -0.1851629876 1
-104.3337997198 119.5560077429 -10.9502988624 0.0864563619 1
-102.5560237169 119.5560077429 -10.8327199572 -0.0966116945 1
-100.778247714 119.5560077429 -11.0191036753 0.0100894633 1
-99.0004717112 119.5560077429 -10.8668717738 -0.4183590375 1
-97.2226957083 119.5560077429 -10.7466444919 -0.226133712 1
-95.4449197054 119.5560077429 -10.9815645999 -0.3328506212 1
-93.6671437025 119.5560077429 -10.9238115154 -0.3247272142 1
-91.8893676996 119.5560077429 -11.0734193832 -0.0823380967 1
-90.1115916967 119.5560077429 -11.2983080216 0.1105187152 1
-88.3338156939 119.5560077429 -11.3217166933 0.0152000643 1
-86.556039691 119.5560077429 -10.8787003307 -0.1578214871 1
-84.7782636881 119.5560077429 -10.7144308088 0.0669103537 1
-83.0004876852 119.5560077429 -10.8780172944 -0.353987517 1
-81.2227116823 119.5560077429 -10.9603797341 -0.0408175066 1
-79.4449356794 119.5560077429 -10.8596769813 0.1410749255 1
-77.6671596766 119.5560077429 -10.7147694631 0.2016074095 1
-75.8893836737 119.5560077429 -10.8248485721 0.2599948443 1
-74.1116076708 119.5560077429 -11.0072808463 0.2105284081 1
-72.3338316679 119.5560077429 -11.1964668749 0.351271123 1
-70.556055665 119.5560077429 -10.6521399 0.2574746264 1
-68.7782796621 119.5560077429 0 -0 0
-67.0005036592 119.5560077429 0 -0 0
-65.2227276564 119.5560077429 0 -0 0
-63.4449516535 119.5560077429 0 -0 0
-61.6671756506 119.5560077429 0 -0 0
-59.8893996477 119.5560077429 -10.8982756937 0.1607684237 1
-58.1116236448 119.5560077429 -10.2315119505 0.0878797122 1
-56.3338476419 119.5560077429 -10.0965055952 0.4964843608 1
-54.5560716391 119.5560077429 -10.3109188619 0.5800782707 1
-52.7782956362 119.5560077429 -10.7746711766 0.7550716062 1
-51.0005196333 119.5560077429 -10.912587954 0.5060669167 1
-49.2227436304 119.5560077429 -10.3822639399 0.6657298812 1
-47.4449676275 119.5560077429 -10.9186665478 0.9344137495 1
-45.6671916246 119.5560077429 -10.8207482062 0.6345192734 1
-43.8894156218 119.5560077429 -10.6286939977 0.8777804436 1
-42.1116396189 119.5560077429 -10.18106177 1.0979157505 1
-40.333863616 119.5560077429 -9.9334217212 0.2037810974 1
-38.5560876131 119.5560077429 -10.4417854729 0.8313411327 1
-36.7783116102 119.5560077429 -10.7299387406 0.4840364891 1
-35.0005356073 119.5560077429 -10.1336802413 0.5584416271 1
-33.2227596045 119.5560077429 -10.2767054718 0.9473312983 1
-31.4449836016 119.5560077429 -10.054740143 0.3839036492 1
-29.6672075987 119.5560077429 -9.3569233056 0.8154222336 1
-27.8894315958 119.5560077429 -9.2154646196 0.8397251531 1
-26.1116555929 119.5560077429 -10.8189790418 1.1433956603 1
-24.33387959 119.5560077429 -10.1853260933 0.5850413816 1
-22.5561035872 119.5560077429 -10.3069939089 1.3528114494 1
-20.7783275843 119.5560077429 -9.7015845843 1.5138605338 1
-19.0005515814 119.5560077429 -10.1663156314 1.2650706356 1
-17.2227755785 119.5560077429 -10.2012192175 0.6958980351 1
-15.4449995756 119.5560077429 -9.9608434105 0.6706815366 1
-13.6672235727 119.5560077429 -9.7616588469 1.319619034 1
-11.8894475698 119.5560077429 -9.7856896974 0.9482534689 1
-10.111671567 119.5560077429 -9.7946450627 1.0409559618 1
-8.3338955641 119.5560077429 -9.8494640981 1.241410658 1
-6.5561195612 119.5560077429 -9.8104966606 1.9384685661 1
-4.7783435583 119.5560077429 -9.5043990117 1.0473295356 1
-3.0005675554 119.5560077429 -9.7711497584 0.7915775354 1
-1.2227915525 119.5560077429 -10.0263590526 0.9151584255 1
0.5549844503 119.5560077429 -9.4765477399 1.3408719171 1
2.3327604532 119.5560077429 -9.772097704 0.6576938227 1
4.1105364561 119.5560077429 -10.1553712987 0.883818943 1
5.888312459 119.5560077429 -10.147094674 0.9460525741 1
7.6660884619 119.5560077429 -9.4572609132 0.7182835844 1
9.4438644648 119.5560077429 -9.3860031836 0.7443392009 1
11.2216404676 119.5560077429 -8.9862923268 1.0254924202 1
12.9994164705 119.5560077429 0 -0 0
14.7771924734 119.5560077429 0 -0 0
16.5549684763 119.5560077429 0 -0 0
18.3327444792 119.5560077429 0 -0 0
20.1105204821 119.5560077429 0 -0 0
21.8882964849 119.5560077429 0 -0 0
23.6660724878 119.5560077429 0 -0 0
25.4438484907 119.5560077429 0 -0 0
27.2216244936 119.5560077429 0 -0 0
28.9994004965 119.5560077429 0 -0 0
30.7771764994 119.5560077429 0 -0 0
32.5549525023 119.5560077429 0 -0 0
34.3327285051 119.5560077429 0 -0 0
36.110504508 119.5560077429 -9.2697466768 0.8550426366 1
37.8882805109 119.5560077429 -9.0376045363 0.6299341952 1
39.6660565138 119.5560077429 -9.222491159 -0.0037703033 1
41.4438325167 119.5560077429 -9.0631804522 1.0754829472 1
43.2216085196 119.5560077429 -9.971913754 0.6096478729 1
44.9993845224 119.5560077429 -9.6924473624 0.0771372834 1
46.7771605253 119.5560077429 -9.4829370651 0.4840551043 1
48.5549365282 119.5560077429 -10.0833045219 0.7904735082 1
50.3327125311 119.5560077429 -9.1198108943 0.7596108623 1
52.110488534 119.5560077429 -9.2296165024 0.0596747507 1
53.8882645369 119.5560077429 0 -0 0
-125.6671117544 117.77823174 0 -0 0
-123.8893357515 117.77823174 -10.867929263 -0.5818524468 1
-122.1115597486 117.77823174 -10.59298924 -0.6656496924 1
-120.3337837458 117.77823174 -10.7985280462 -0.3929964808 1
-118.5560077429 117.77823174 -11.1527382302 -0.6656081661 1
-116.77823174 117.77823174 -10.8545262859 -0.5251704548 1
-115.0004557371 117.77823174 -10.5910575503 -0.4273459054 1
-113.2226797342 117.77823174 -10.9679675947 -0.4645563501 1
-111.4449037313 117.77823174 -11.0457428083 -0.5197147558 1
-109.6671277285 117.77823174 -10.8999818526 -0.2259389679 1
-107.8893517256 117.77823174 -10.4542018419 0.0174825798 1
-106.1115757227 117.77823174 -10.96196203 -0.1039060071 1
-104.3337997198 117.77823174 -10.7789426596 0.1478823777 1
-102.5560237169 117.77823174 -10.6818892109 -0.1510827681 1
-100.778247714 117.77823174 -10.8392968668 -0.3940017041 1
-99.0004717112 117.77823174 -10.9085233866 -0.091317805 1
-97.2226957083 117.77823174 -10.9552319026 0.2109665823 1
-95.4449197054 117.77823174 -11.044738301 0.1680040266 1
-93.6671437025 117.77823174 -10.820652266 0.3597066933 1
-91.8893676996 117.77823174 -11.4567438118 0.0319122593 1
-90.1115916967 117.77823174 -11.1162423245 -0.0308125279 1
-88.3338156939 117.77823174 -10.7342223951 -0.0025875192 1
-86.556039691 117.77823174 -10.798507999 -0.2388063986 1
-84.7782636881 117.77823174 -10.8600342508 0.2188923813 1
-83.0004876852 117.77823174 -11.0564866691 0.7776819703 1
-81.2227116823 117.77823174 0 -0 0
-79.4449356794 117.77823174 0 -0 0
-77.6671596766 117.77823174 -10.7394668826 0.36359012 1
-75.8893836737 117.77823174 -10.7891223352 0.5268873533 1
-74.1116076708 117.77823174 -11.0408154959 0.6047148327 1
-72.3338316679 117.77823174 -11.303284736 0.0377288077 1
-70.556055665 117.77823174 -11.2133229801 0.1989411335 1
-68.7782796621 117.77823174 0 -0 0
-67.0005036592 117.77823174 0 -0 0
-65.2227276564 117.77823174 0 -0 0
-63.4449516535 117.77823174 0 -0 0
-61.6671756506 117.77823174 0 -0 0
-59.8893996477 117.77823174 0 -0 0
-58.1116236448 117.77823174 -9.8832536334 0.2312142422 1
-56.3338476419 117.77823174 -10.7253257395 0.4646293792 1
-54.5560716391 117.77823174 -11.0244176121 0.3472258869 1
-52.7782956362 117.77823174 -10.1715923376 0.6199750386 1
-51.0005196333 117.77823174 -10.3455904735 0.3851565984 1
-49.2227436304 117.77823174 -10.7471650028 0.870612142 1
-47.4449676275 117.77823174 -10.7249956768 0.6844482269 1
-45.6671916246 117.77823174 -10.1423234432 0.7930395482 1
-43.8894156218 117.77823174 -10.6493139625 0.7402481426 1
-42.1116396189 117.77823174 -10.1190930482 1.3886572534 1
-40.333863616 117.77823174 -10.1607911991 0.6572885831 1
-38.5560876131 117.77823174 -10.8880602195 0.6814397168 1
-36.7783116102 117.77823174 -10.4012543547 0.6379229995 1
-35.0005356073 117.77823174 -10.0922169289 0.7458341484 1
-33.2227596045 117.77823174 -10.5661990372 0.9267113336 1
-31.4449836016 117.77823174 0 -0 0
-29.6672075987 117.77823174 -9.5794700028 0.4550940774 1
-27.8894315958 117.77823174 -9.8814007005 1.1097665025 1
-26.1116555929 117.77823174 -10.9749798147 0.9737520601 1
-24.33387959 117.77823174 -10.1690807114 0.5018541433 1
-22.5561035872 117.77823174 -10.1599033951 0.8152575602 1
-20.7783275843 117.77823174 -9.9492146095 1.0935139608 1
-19.0005515814 117.77823174 -10.7607677358 0.9765357553 1
-17.2227755785 117.77823174 -10.5227353018 0.6989910299 1
-15.4449995756 117.77823174 -10.7974848765 1.0133796229 1
-13.6672235727 117.77823174 -9.9048000646 1.1109564463 1
-11.8894475698 117.77823174 -9.2914463258 0.8706465086 1
-10.111671567 117.77823174 -9.6888889866 1.302114975 1
-8.3338955641 117.77823174 -9.7877917883 1.1605274143 1
-6.5561195612 117.77823174 -9.6990973011 1.5063700452 1
-4.7783435583 117.77823174 -9.3153354142 1.0409215952 1
-3.0005675554 117.77823174 -9.4765720829 1.5257141496 1
-1.2227915525 117.77823174 -10.0262029709 0.8732683944 1
0.5549844503 117.77823174 -9.4220036373 1.0065907859 1
2.3327604532 117.77823174 -9.5753775126 1.2518366276 1
4.1105364561 117.77823174 -9.6585003135 1.0314793697 1
5.888312459 117.77823174 -10.0811952714 1.0778256043 1
7.6660884619 117.77823174 -9.6268672829 1.1019380756 1
9.4438644648 117.77823174 -9.7030150944 0.8136609449 1