TITLE = "B00027"
VARIABLES = "x", "y", "Vx", "Vy", "isValid"
ZONE T="Frame 0", I=102, J=78, F=POINT
-125.6671117544 126.6671117544 0 -0 0
-123.8893357515 126.6671117544 0 -0 0
-122.1115597486 126.6671117544 0 -0 0
-120.3337837458 126.6671117544 0 -0 0
-118.5560077429 126.6671117544 0 -0 0
-116.77823174 126.6671117544 0 -0 0
-115.0004557371 126.6671117544 0 -0 0
-113.2226797342 126.6671117544 0 -0 0
-111.4449037313 126.6671117544 0 -0 0
-109.6671277285 126.6671117544 0 -0 0
-107.8893517256 126.6671117544 0 -0 0
-106.1115757227 126.6671117544 0 -0 0
-104.3337997198 126.6671117544 0 -0 0
-102.5560237169 126.6671117544 0 -0 0
-100.778247714 126.6671117544 0 -0 0
-99.0004717112 126.6671117544 0 -0 0
-97.2226957083 126.6671117544 0 -0 0
-95.4449197054 126.6671117544 0 -0 0
-93.6671437025 126.6671117544 0 -0 0
-91.8893676996 126.6671117544 0 -0 0
-90.1115916967 126.6671117544 0 -0 0
-88.3338156939 126.6671117544 0 -0 0
-86.556039691 126.6671117544 0 -0 0
-84.7782636881 126.6671117544 0 -0 0
-83.0004876852 126.6671117544 0 -0 0
-81.2227116823 126.6671117544 0 -0 0
-79.4449356794 126.6671117544 0 -0 0
-77.6671596766 126.6671117544 0 -0 0
-75.8893836737 126.6671117544 0 -0 0
-74.1116076708 126.6671117544 0 -0 0
-72.3338316679 126.6671117544 0 -0 0
-70.556055665 126.6671117544 0 -0 0
-68.7782796621 126.6671117544 0 -0 0
-67.0005036592 126.6671117544 0 -0 0
-65.2227276564 126.6671117544 0 -0 0
-63.4449516535 126.6671117544 0 -0 0
-61.6671756506 126.6671117544 0 -0 0
-59.8893996477 126.6671117544 0 -0 0
-58.1116236448 126.6671117544 0 -0 0
-56.3338476419 126.6671117544 0 -0 0
-54.5560716391 126.6671117544 0 -0 0
-52.7782956362 126.6671117544 0 -0 0
-51.0005196333 126.6671117544 0 -0 0
-49.2227436304 126.6671117544 0 -0 0
-47.4449676275 126.6671117544 0 -0 0
-45.6671916246 126.6671117544 0 -0 0
-43.8894156218 126.6671117544 0 -0 0
-42.1116396189 126.6671117544 0 -0 0
-40.333863616 126.6671117544 0 -0 0
-38.5560876131 126.6671117544 0 -0 0
-36.7783116102 126.6671117544 0 -0 0
-35.0005356073 126.6671117544 0 -0 0
-33.2227596045 126.6671117544 0 -0 0
-31.4449836016 126.6671117544 0 -0 0
-29.6672075987 126.6671117544 0 -0 0
-27.8894315958 126.6671117544 0 -0 0
-26.1116555929 126.6671117544 0 -0 0
-24.33387959 126.6671117544 0 -0 0
-22.5561035872 126.6671117544 0 -0 0
-20.7783275843 126.6671117544 0 -0 0
-19.0005515814 126.6671117544 0 -0 0
-17.2227755785 126.6671117544 0 -0 0
-15.4449995756 126.6671117544 0 -0 0
-13.6672235727 126.6671117544 0 -0 0
-11.8894475698 126.6671117544 0 -0 0
-10.111671567 126.6671117544 0 -0 0
-8.3338955641 126.6671117544 0 -0 0
-6.5561195612 126.6671117544 0 -0 0
-4.7783435583 126.6671117544 0 -0 0
-3.0005675554 126.6671117544 0 -0 0
-1.2227915525 126.6671117544 0 -0 0
0.5549844503 126.6671117544 0 -0 0
2.3327604532 126.6671117544 0 -0 0
4.1105364561 126.6671117544 0 -0 0
5.888312459 126.6671117544 0 -0 0
7.6660884619 126.6671117544 0 -0 0
9.4438644648 126.6671117544 0 -0 0
11.2216404676 126.6671117544 0 -0 0
12.9994164705 126.6671117544 0 -0 0
14.7771924734 126.6671117544 0 -0 0
16.5549684763 126.6671117544 0 -0 0
18.3327444792 126.6671117544 0 -0 0
20.1105204821 126.6671117544 0 -0 0
21.8882964849 126.6671117544 0 -0 0
23.6660724878 126.6671117544 0 -0 0
25.4438484907 126.6671117544 0 -0 0
27.2216244936 126.6671117544 0 -0 0
28.9994004965 126.6671117544 0 -0 0
30.7771764994 126.6671117544 0 -0 0
32.5549525023 126.6671117544 0 -0 0
34.3327285051 126.6671117544 0 -0 0
36.110504508 126.6671117544 0 -0 0
37.8882805109 126.6671117544 0 -0 0
39.6660565138 126.6671117544 0 -0 0
41.4438325167 126.6671117544 0 -0 0
43.2216085196 126.6671117544 0 -0 0
44.9993845224 126.6671117544 0 -0 0
46.7771605253 126.6671117544 0 -0 0
48.5549365282 126.6671117544 0 -0 0
50.3327125311 126.6671117544 0 -0 0
52.110488534 126.6671117544 0 -0 0
53.8882645369 126.6671117544 0 -0 0
-125.6671117544 124.8893357515 0 -0 0
-123.8893357515 124.8893357515 -10.7942780424 -0.4882005764 1
-122.1115597486 124.8893357515 -10.5310541688 0.353814252 1
-120.3337837458 124.8893357515 -10.1950890738 0.2223992072 1
-118.5560077429 124.8893357515 -10.9076198312 0.2077891031 1
-116.77823174 124.8893357515 -10.796113792 -0.1550535432 1
-115.0004557371 124.8893357515 -10.408849375 0.0117863146 1
-113.2226797342 124.8893357515 -10.724621224 -0.1405866332 1
-111.4449037313 124.8893357515 -10.9015168944 -0.2611604451 1
-109.6671277285 124.8893357515 -11.0396413034 -0.5140700405 1
-107.8893517256 124.8893357515 -10.6986543878 -0.2828472067 1
-106.1115757227 124.8893357515 -10.6973806754 -0.0862988483 1
-104.3337997198 124.8893357515 -10.9406246623 -0.2650180969 1
-102.5560237169 124.8893357515 -10.4749807522 0.2747681899 1
-100.778247714 124.8893357515 -10.6085795085 0.1525204378 1
-99.0004717112 124.8893357515 -10.5752295794 -0.3204285243 1
-97.2226957083 124.8893357515 -10.2997053241 0.2366413023 1
-95.4449197054 124.8893357515 -10.109889957 -0.1357996511 1
-93.6671437025 124.8893357515 -10.3675378484 -0.2828744136 1
-91.8893676996 124.8893357515 -10.6161602094 0.0144597503 1
-90.1115916967 124.8893357515 -10.3615050768 -0.1969163675 1
-88.3338156939 124.8893357515 -10.3745242934 0.5538107267 1
-86.556039691 124.8893357515 -10.4777658794 0.2832223755 1
-84.7782636881 124.8893357515 0 -0 0
-83.0004876852 124.8893357515 -10.4132454369 0.1983955636 1
-81.2227116823 124.8893357515 -10.5903888334 0.2422802899 1
-79.4449356794 124.8893357515 -10.8395360011 -0.1055914028 1
-77.6671596766 124.8893357515 -10.6920917977 0.0705102558 1
-75.8893836737 124.8893357515 -11.0312243484 0.3108846309 1
-74.1116076708 124.8893357515 -10.8050877725 0.3198070615 1
-72.3338316679 124.8893357515 -10.7901017836 0.2525100835 1
-70.556055665 124.8893357515 -10.5578794542 0.6642420934 1
-68.7782796621 124.8893357515 0 -0 0
-67.0005036592 124.8893357515 0 -0 0
-65.2227276564 124.8893357515 0 -0 0
-63.4449516535 124.8893357515 0 -0 0
-61.6671756506 124.8893357515 0 -0 0
-59.8893996477 124.8893357515 0 -0 0
-58.1116236448 124.8893357515 -10.188618128 0.9616979723 1
-56.3338476419 124.8893357515 -10.6881460815 0.678424047 1
-54.5560716391 124.8893357515 -10.3238836647 0.5239461444 1
-52.7782956362 124.8893357515 -10.8221708405 0.6632025035 1
-51.0005196333 124.8893357515 -10.8373394021 0.7500068273 1
-49.2227436304 124.8893357515 -10.3482238148 1.0806808967 1
-47.4449676275 124.8893357515 -11.4850218023 0.419358533 1
-45.6671916246 124.8893357515 -10.370955894 1.454556656 1
-43.8894156218 124.8893357515 -10.654708088 0.6854176517 1
-42.1116396189 124.8893357515 -10.6249287063 0.7081354114 1
-40.333863616 124.8893357515 0 -0 0
-38.5560876131 124.8893357515 -9.8497862851 0.2604101075 1
-36.7783116102 124.8893357515 -10.1562318958 0.4517361734 1
-35.0005356073 124.8893357515 -9.984776889 0.3712538736 1
-33.2227596045 124.8893357515 -10.009908903 0.8009782346 1
-31.4449836016 124.8893357515 -10.5253858265 0.9783600494 1
-29.6672075987 124.8893357515 -10.3205415121 0.4956323553 1
-27.8894315958 124.8893357515 -10.3634811568 0.7028085872 1
-26.1116555929 124.8893357515 -9.855392338 1.3064279843 1
-24.33387959 124.8893357515 0 -0 0
-22.5561035872 124.8893357515 -8.9468924427 0.8269937568 1
-20.7783275843 124.8893357515 -10.1969720776 0.9002633649 1
-19.0005515814 124.8893357515 -10.5195356274 1.051987643 1
-17.2227755785 124.8893357515 -9.8486106607 0.9157999355 1
-15.4449995756 124.8893357515 0 -0 0
-13.6672235727 124.8893357515 -10.4122373498 0.5801226609 1
-11.8894475698 124.8893357515 -10.8504617186 1.1062754279 1
-10.111671567 124.8893357515 -10.7649812251 0.6600178645 1
-8.3338955641 124.8893357515 -10.3689769501 0.6602469753 1
-6.5561195612 124.8893357515 -10.10487816 1.0723355387 1
-4.7783435583 124.8893357515 -10.5150694003 1.0092871326 1
-3.0005675554 124.8893357515 -9.642860643 0.8709930385 1
-1.2227915525 124.8893357515 -9.7051400963 0.8405585434 1
0.5549844503 124.8893357515 -9.3785470616 0.2554827951 1
2.3327604532 124.8893357515 -10.0940985007 1.0921249771 1
4.1105364561 124.8893357515 -9.6718216699 0.6651098503 1
5.888312459 124.8893357515 -10.0238374028 1.2299264832 1
7.6660884619 124.8893357515 -9.3475684285 0.297700741 1
9.4438644648 124.8893357515 0 -0 0
11.2216404676 124.8893357515 0 -0 0
12.9994164705 124.8893357515 0 -0 0
14.7771924734 124.8893357515 0 -0 0
16.5549684763 124.8893357515 0 -0 0
18.3327444792 124.8893357515 0 -0 0
20.1105204821 124.8893357515 0 -0 0
21.8882964849 124.8893357515 0 -0 0
23.6660724878 124.8893357515 0 -0 0
25.4438484907 124.8893357515 0 -0 0
27.2216244936 124.8893357515 0 -0 0
28.9994004965 124.8893357515 0 -0 0
30.7771764994 124.8893357515 0 -0 0
32.5549525023 124.8893357515 0 -0 0
34.3327285051 124.8893357515 0 -0 0
36.110504508 124.8893357515 -9.3357634987 0.7352893275 1
37.8882805109 124.8893357515 -9.764346602 0.8817053966 1
39.6660565138 124.8893357515 -9.7954168794 0.6334625002 1
41.4438325167 124.8893357515 -9.6344852143 0.2980572945 1
43.2216085196 124.8893357515 -9.6445503346 0.1829520691 1
44.9993845224 124.8893357515 -8.8491394904 0.7125744316 1
46.7771605253 124.8893357515 -9.3011319815 0.241413965 1
48.5549365282 124.8893357515 -9.579515825 0.0129877139 1
50.3327125311 124.8893357515 -8.94394837 0.4238362156 1
52.110488534 124.8893357515 -8.9188764976 -0.0995887019 1
53.8882645369 124.8893357515 0 -0 0
-125.6671117544 123.1115597486 0 -0 0
-123.8893357515 123.1115597486 -10.4526739598 0.0083754287 1
-122.1115597486 123.1115597486 -10.8119560823 0.1918802275 1
-120.3337837458 123.1115597486 -10.7865784903 0.2265890695 1
-118.5560077429 123.1115597486 -10.9915459516 0.0737049184 1
-116.77823174 123.1115597486 -11.0719988967 0.0426761673 1
-115.0004557371 123.1115597486 -10.6027257296 0.1692913425 1
-113.2226797342 123.1115597486 -10.7718674342 -0.2458372338 1
-111.4449037313 123.1115597486 -10.352834668 -0.2742383714 1
-109.6671277285 123.1115597486 -10.5965605034 -0.3093796599 1
-107.8893517256 123.1115597486 -10.2135897644 0.0539999646 1
-106.1115757227 123.1115597486 -10.3539659022 -0.108178922 1
-104.3337997198 123.1115597486 -10.5771555414 -0.1300532679 1
-102.5560237169 123.1115597486 -10.4229282287 0.1651157996 1
-100.778247714 123.1115597486 -10.9299166001 0.230774636 1
-99.0004717112 123.1115597486 -10.6176744881 -0.1704354641 1
-97.2226957083 123.1115597486 -10.3790807329 0.3800903876 1
-95.4449197054 123.1115597486 -10.3432793191 0.1640762097 1
-93.6671437025 123.1115597486 -10.7014230477 -0.0091200386 1
-91.8893676996 123.1115597486 -10.7840017107 0.3295270838 1
-90.1115916967 123.1115597486 -10.6027801434 -0.0210896417 1
-88.3338156939 123.1115597486 -11.0042723361 0.2850523973 1
-86.556039691 123.1115597486 -10.6922979973 -0.0814273816 1
-84.7782636881 123.1115597486 -10.6618835493 0.5515998083 1
-83.0004876852 123.1115597486 -10.6839991775 0.1856584395 1
-81.2227116823 123.1115597486 -10.5394732718 0.3591997858 1
-79.4449356794 123.1115597486 -11.3361836033 -0.1929799589 1
-77.6671596766 123.1115597486 -10.7771656196 0.2782750159 1
-75.8893836737 123.1115597486 -11.0361115664 0.5766358821 1
-74.1116076708 123.1115597486 -10.8837114117 0.4869705382 1
-72.3338316679 123.1115597486 -10.63554942 0.3318826284 1
-70.556055665 123.1115597486 -10.5569286447 0.538792519 1
-68.7782796621 123.1115597486 0 -0 0
-67.0005036592 123.1115597486 0 -0 0
-65.2227276564 123.1115597486 0 -0 0
-63.4449516535 123.1115597486 0 -0 0
-61.6671756506 123.1115597486 0 -0 0
-59.8893996477 123.1115597486 0 -0 0
-58.1116236448 123.1115597486 -10.2228000153 -0.0285858581 1
-56.3338476419 123.1115597486 -10.8560412805 0.0003365064 1
-54.5560716391 123.1115597486 -10.5685359666 0.5458677444 1
-52.7782956362 123.1115597486 -10.9610878294 0.5683277547 1
-51.0005196333 123.1115597486 -10.6162031677 0.8125025038 1
-49.2227436304 123.1115597486 -10.5065794162 0.9377788132 1
-47.4449676275 123.1115597486 -10.1606322536 1.1445541014 1
-45.6671916246 123.1115597486 -10.0212584752 1.4378330055 1
-43.8894156218 123.1115597486 -10.6415965111 0.6515121291 1
-42.1116396189 123.1115597486 -10.578596791 1.0893441458 1
-40.333863616 123.1115597486 -10.7377965223 1.3661614447 1
-38.5560876131 123.1115597486 -10.3945757772 1.3979562848 1
-36.7783116102 123.1115597486 -10.6703212675 0.7369976343 1
-35.0005356073 123.1115597486 -10.3782187038 0.6778040161 1
-33.2227596045 123.1115597486 -9.4962741728 1.1327276924 1
-31.4449836016 123.1115597486 -10.1136760117 0.8036817411 1
-29.6672075987 123.1115597486 0 -0 0
-27.8894315958 123.1115597486 -10.8715069701 0.5068143904 1
-26.1116555929 123.1115597486 -10.8063536092 1.086202465 1
-24.33387959 123.1115597486 -11.4195290712 0.999896457 1
-22.5561035872 123.1115597486 0 -0 0
-20.7783275843 123.1115597486 -10.6888634844 0.6491351054 1
-19.0005515814 123.1115597486 -11.0125102984 0.7521690598 1
-17.2227755785 123.1115597486 -10.661027248 1.0493056156 1
-15.4449995756 123.1115597486 0 -0 0
-13.6672235727 123.1115597486 -10.5819947894 1.1504852051 1
-11.8894475698 123.1115597486 -10.5113427713 1.3716916047 1
-10.111671567 123.1115597486 -10.2271316399 0.8205199471 1
-8.3338955641 123.1115597486 -10.0190375332 0.9727812034 1
-6.5561195612 123.1115597486 -10.0651961834 1.1820924608 1
-4.7783435583 123.1115597486 -9.9453182953 0.7320975288 1
-3.0005675554 123.1115597486 -9.5171089289 0.949139841 1
-1.2227915525 123.1115597486 -10.0796945961 0.2912770492 1
0.5549844503 123.1115597486 -9.7898824236 0.9628549815 1
2.3327604532 123.1115597486 -9.9007491007 1.2918121524 1
4.1105364561 123.1115597486 -9.5327672146 0.9566432171 1
5.888312459 123.1115597486 -9.7828931147 0.9346686352 1
7.6660884619 123.1115597486 -9.3454734974 0.7651080876 1
9.4438644648 123.1115597486 0 -0 0
11.2216404676 123.1115597486 -10.3058326039 0.2396197417 1
12.9994164705 123.1115597486 0 -0 0
14.7771924734 123.1115597486 0 -0 0
16.5549684763 123.1115597486 0 -0 0
18.3327444792 123.1115597486 0 -0 0
20.1105204821 123.1115597486 0 -0 0
21.8882964849 123.1115597486 0 -0 0
23.6660724878 123.1115597486 0 -0 0
25.4438484907 123.1115597486 0 -0 0
27.2216244936 123.1115597486 0 -0 0
28.9994004965 123.1115597486 0 -0 0
30.7771764994 123.1115597486 0 -0 0
32.5549525023 123.1115597486 0 -0 0
34.3327285051 123.1115597486 0 -0 0
36.110504508 123.1115597486 -9.4880848966 0.9288076966 1
37.8882805109 123.1115597486 -8.6413904818 1.1050196148 1
39.6660565138 123.1115597486 -9.3148829205 0.9192723949 1
41.4438325167 123.1115597486 -9.3601194001 0.7140980179 1
43.2216085196 123.1115597486 -9.1366075739 -0.0079530058 1
44.9993845224 123.1115597486 -9.3184312728 0.4803005524 1
46.7771605253 123.1115597486 -9.1973233465 -0.2635188536 1
48.5549365282 123.1115597486 -9.517771918 -0.1949116487 1
50.3327125311 123.1115597486 -9.5776027505 0.4454155815 1
52.110488534 123.1115597486 -8.9588634778 0.0293920414 1
53.8882645369 123.1115597486 0 -0 0
-125.6671117544 121.3337837458 0 -0 0
-123.8893357515 121.3337837458 -10.2995979285 -0.2524055518 1
-122.1115597486 121.3337837458 -10.8246187454 -0.1168536266 1
-120.3337837458 121.3337837458 -11.0235613108 0.3208380598 1
-118.5560077429 121.3337837458 -10.6585972424 -0.2689731207 1
-116.77823174 121.3337837458 -10.9513749668 0.2391958869 1
-115.0004557371 121.3337837458 -10.5423342919 0.4309057132 1
-113.2226797342 121.3337837458 -10.5081030025 0.4274919635 1
-111.4449037313 121.3337837458 -10.2807678912 0.1549046213 1
-109.6671277285 121.3337837458 -10.2352879815 0.0926623985 1
-107.8893517256 121.3337837458 -10.1206424095 0.1159228643 1
-106.1115757227 121.3337837458 -10.5331813187 -0.1275101389 1
-104.3337997198 121.3337837458 -10.4116846202 -0.0676721468 1
-102.5560237169 121.3337837458 -10.5817692585 0.3428713513 1
-100.778247714 121.3337837458 -10.9051898257 0.2497435716 1
-99.0004717112 121.3337837458 -10.7345560376 -0.2843808165 1
-97.2226957083 121.3337837458 -10.4258307751 0.1771312249 1
-95.4449197054 121.3337837458 -10.1248680703 -0.1621101534 1
-93.6671437025 121.3337837458 -10.4791162007 0.3174386295 1
-91.8893676996 121.3337837458 -10.7874627145 0.433405884 1
-90.1115916967 121.3337837458 -10.3586698316 0.2173143812 1
-88.3338156939 121.3337837458 -11.2472320825 0.3197354644 1
-86.556039691 121.3337837458 -10.5538299223 0.5030755898 1
-84.7782636881 121.3337837458 -10.2754639781 0.0111448046 1
-83.0004876852 121.3337837458 -10.7974154273 1.0201555724 1
-81.2227116823 121.3337837458 -10.2487697154 0.5374049672 1
-79.4449356794 121.3337837458 -11.0090113482 -0.0556796326 1
-77.6671596766 121.3337837458 -10.7276956035 0.1799764937 1
-75.8893836737 121.3337837458 -10.694279805 0.2799962101 1
-74.1116076708 121.3337837458 -10.6746485962 -0.0009092832 1
-72.3338316679 121.3337837458 -10.4692859189 0.0978818271 1
-70.556055665 121.3337837458 -10.3382646582 0.0509356087 1
-68.7782796621 121.3337837458 0 -0 0
-67.0005036592 121.3337837458 0 -0 0
-65.2227276564 121.3337837458 0 -0 0
-63.4449516535 121.3337837458 0 -0 0
-61.6671756506 121.3337837458 0 -0 0
-59.8893996477 121.3337837458 -10.8108370196 0.3448889575 1
-58.1116236448 121.3337837458 -9.800957063 0.1362736239 1
-56.3338476419 121.3337837458 -10.6531580108 0.2470529526 1
-54.5560716391 121.3337837458 -11.1316922627 0.7240428551 1
-52.7782956362 121.3337837458 -10.8861779318 0.5364856605 1
-51.0005196333 121.3337837458 -10.8075414051 0.6095805716 1
-49.2227436304 121.3337837458 -10.8502225842 0.6695474385 1
-47.4449676275 121.3337837458 -10.1991271503 0.9582269449 1
-45.6671916246 121.3337837458 -10.1332621143 0.6755759143 1
-43.8894156218 121.3337837458 -10.3840481396 0.7357532767 1
-42.1116396189 121.3337837458 -10.6984718152 1.1156560799 1
-40.333863616 121.3337837458 -10.9184309933 1.647956174 1
-38.5560876131 121.3337837458 -10.8099585232 1.2568169219 1
-36.7783116102 121.3337837458 -10.3636601495 0.9320195425 1
-35.0005356073 121.3337837458 -10.6154256232 1.4553900463 1
-33.2227596045 121.3337837458 -9.8403941775 1.4722611869 1
-31.4449836016 121.3337837458 -10.087474337 0.9302109998 1
-29.6672075987 121.3337837458 -10.113618734 0.9449342274 1
-27.8894315958 121.3337837458 -10.3638147992 0.2925443179 1
-26.1116555929 121.3337837458 -10.2291979322 1.0764008221 1
-24.33387959 121.3337837458 -10.130850724 0.9746012017 1
-22.5561035872 121.3337837458 0 -0 0
-20.7783275843 121.3337837458 -11.0480883293 1.0032872957 1
-19.0005515814 121.3337837458 -11.2651005707 1.1981416667 1
-17.2227755785 121.3337837458 -10.6575419012 1.5298639175 1
-15.4449995756 121.3337837458 -10.7902456937 1.0277806635 1
-13.6672235727 121.3337837458 -10.4479256401 1.0922824907 1
-11.8894475698 121.3337837458 -9.9301296866 1.0085253395 1
-10.111671567 121.3337837458 -10.1614341411 0.792872011 1
-8.3338955641 121.3337837458 -10.4167465351 0.8481592915 1
-6.5561195612 121.3337837458 -9.0945657569 0.7464155168 1
-4.7783435583 121.3337837458 0 -0 0
-3.0005675554 121.3337837458 -9.6091942548 0.7425507054 1
-1.2227915525 121.3337837458 -9.6816118573 1.2638907154 1
0.5549844503 121.3337837458 -9.9964916065 1.7663362507 1
2.3327604532 121.3337837458 -10.1619338889 0.908555741 1
4.1105364561 121.3337837458 -10.1367574847 1.219413165 1
5.888312459 121.3337837458 -9.1531049777 0.7790108125 1
7.6660884619 121.3337837458 -9.8188821129 0.900728746 1
9.4438644648 121.3337837458 -9.6968405605 0.6481370418 1
11.2216404676 121.3337837458 -10.072835594 0.4556511029 1
12.9994164705 121.3337837458 0 -0 0
14.7771924734 121.3337837458 0 -0 0
16.5549684763 121.3337837458 0 -0 0
18.3327444792 121.3337837458 0 -0 0
20.1105204821 121.3337837458 0 -0 0
21.8882964849 121.3337837458 0 -0 0
23.6660724878 121.3337837458 0 -0 0
25.4438484907 121.3337837458 0 -0 0
27.2216244936 121.3337837458 0 -0 0
28.9994004965 121.3337837458 0 -0 0
30.7771764994 121.3337837458 0 -0 0
32.5549525023 121.3337837458 0 -0 0
34.3327285051 121.3337837458 0 -0 0
36.110504508 121.3337837458 -10.4931463684 0.3163804243 1
37.8882805109 121.3337837458 -8.8710209961 1.3719464903 1
39.6660565138 121.3337837458 -9.196693292 0.5645030376 1
41.4438325167 121.3337837458 -9.0649761075 0.2332647831 1
43.2216085196 121.3337837458 -9.3488041944 0.2037395711 1
44.9993845224 121.3337837458 -9.5500450267 -0.0517231768 1
46.7771605253 121.3337837458 -9.3089317696 -0.3644850837 1
48.5549365282 121.3337837458 -8.8495647772 0.056162197 1
50.3327125311 121.3337837458 -9.4988888989 0.3532830015 1
52.110488534 121.3337837458 -9.4768126492 0.2174862142 1
53.8882645369 121.3337837458 0 -0 0
-125.6671117544 119.5560077429 0 -0 0
-123.8893357515 119.5560077429 -10.7862691908 -0.1139897426 1
-122.1115597486 119.5560077429 -10.4529302774 -0.2363678014 1
-120.3337837458 119.5560077429 -10.718324975 0.1998246417 1
-118.5560077429 119.5560077429 -10.5811291804 -0.1102838767 1
-116.77823174 119.5560077429 -10.5661489193 0.4356640565 1
-115.0004557371 119.5560077429 -11.0467773864 0.2788721357 1
-113.2226797342 119.5560077429 -10.7542796066 0.5527725688 1
-111.4449037313 119.5560077429 -10.1401196845 0.0194228612 1
-109.6671277285 119.5560077429 -10.4255257715 -0.2463169344 1
-107.8893517256 119.5560077429 -10.336713865 -0.2083747673 1
-106.1115757227 119.5560077429 -10.6576378413 0.1959283275 1
-104.3337997198 119.5560077429 -10.6140659943 0.2271289117 1
-102.5560237169 119.5560077429 -10.6473142555 0.6404016911 1
-100.778247714 119.5560077429 -10.5817105489 0.0035612397 1
-99.0004717112 119.5560077429 -10.5370418343 -0.3346090459 1
-97.2226957083 119.5560077429 -10.3693349356 0.3477471138 1
-95.4449197054 119.5560077429 -10.5276167921 0.3372710261 1
-93.6671437025 119.5560077429 -10.2631664602 0.1398577748 1
-91.8893676996 119.5560077429 -10.9186085541 0.2238884269 1
-90.1115916967 119.5560077429 -10.5482116978 0.469423521 1
-88.3338156939 119.5560077429 -10.938434507 0.3159064515 1
-86.556039691 119.5560077429 -10.6033121099 0.3139604424 1
-84.7782636881 119.5560077429 -10.3130725027 0.5484609914 1
-83.0004876852 119.5560077429 -10.9693114723 0.7969372943 1
-81.2227116823 119.5560077429 -10.4022939446 0.4089697938 1
-79.4449356794 119.5560077429 -10.9673282326 0.2077232337 1
-77.6671596766 119.5560077429 -10.7608679717 0.334063476 1
-75.8893836737 119.5560077429 -10.5139847043 0.3059014728 1
-74.1116076708 119.5560077429 -10.7343562817 0.081763888 1
-72.3338316679 119.5560077429 -10.6191966424 0.1208329934 1
-70.556055665 119.5560077429 -10.3612501911 0.2503077567 1
-68.7782796621 119.5560077429 0 -0 0
-67.0005036592 119.5560077429 0 -0 0
-65.2227276564 119.5560077429 0 -0 0
-63.4449516535 119.5560077429 0 -0 0
-61.6671756506 119.5560077429 0 -0 0
-59.8893996477 119.5560077429 -10.8791764514 0.6561258462 1
-58.1116236448 119.5560077429 -10.5377993316 0.8226406532 1
-56.3338476419 119.5560077429 -9.9441884931 0.4728258152 1
-54.5560716391 119.5560077429 -10.9414272658 1.0325848289 1
-52.7782956362 119.5560077429 -10.6151206196 0.4121587286 1
-51.0005196333 119.5560077429 -10.6064824295 0.803932331 1
-49.2227436304 119.5560077429 -10.59965493 1.0418136951 1
-47.4449676275 119.5560077429 -11.1262365637 0.8714168934 1
-45.6671916246 119.5560077429 -10.5502121208 0.6185373688 1
-43.8894156218 119.5560077429 -10.2683916166 0.8804710626 1
-42.1116396189 119.5560077429 -10.0555148236 1.1502446388 1
-40.333863616 119.5560077429 -10.9637763005 1.4747785409 1
-38.5560876131 119.5560077429 0 -0 0
-36.7783116102 119.5560077429 -10.1730328713 0.976889445 1
-35.0005356073 119.5560077429 -10.2605531661 0.714835468 1
-33.2227596045 119.5560077429 -10.4972861127 0.5128915522 1
-31.4449836016 119.5560077429 -10.4265424503 1.0956275072 1
-29.6672075987 119.5560077429 -10.1076647192 1.1527462415 1
-27.8894315958 119.5560077429 -10.4027364146 0.9014046227 1
-26.1116555929 119.5560077429 -10.1402528551 0.8046125034 1
-24.33387959 119.5560077429 -10.0833059539 0.6833313122 1
-22.5561035872 119.5560077429 -9.5747145235 0.978864093 1
-20.7783275843 119.5560077429 -10.8270394433 1.1179099566 1
-19.0005515814 119.5560077429 -10.2983635945 1.0752595643 1
-17.2227755785 119.5560077429 -9.7057300564 0.7468007092 1
-15.4449995756 119.5560077429 -10.3591495322 1.076970735 1
-13.6672235727 119.5560077429 -10.2730898182 1.1585942926 1
-11.8894475698 119.5560077429 -9.1879613097 0.7197370055 1
-10.111671567 119.5560077429 -10.2354011049 0.9670076133 1
-8.3338955641 119.5560077429 -9.8497705337 1.4418839694 1
-6.5561195612 119.5560077429 -9.6240449252 1.0432413413 1
-4.7783435583 119.5560077429 -9.4138487277 0.7102647092 1
-3.0005675554 119.5560077429 -9.8659872768 0.9998764098 1
-1.2227915525 119.5560077429 -9.5718105451 1.3857919375 1
0.5549844503 119.5560077429 -9.4446913263 0.6408054988 1
2.3327604532 119.5560077429 -9.7132133853 0.2646830224 1
4.1105364561 119.5560077429 -10.1027531581 0.6894070421 1
5.888312459 119.5560077429 -9.6951966911 0.731871282 1
7.6660884619 119.5560077429 -9.5459596962 0.5006985661 1
9.4438644648 119.5560077429 -9.905629159 0.5617293659 1
11.2216404676 119.5560077429 -9.7766541435 0.6425467403 1
12.9994164705 119.5560077429 0 -0 0
14.7771924734 119.5560077429 0 -0 0
16.5549684763 119.5560077429 0 -0 0
18.3327444792 119.5560077429 0 -0 0
20.1105204821 119.5560077429 0 -0 0
21.8882964849 119.5560077429 0 -0 0
23.6660724878 119.5560077429 0 -0 0
25.4438484907 119.5560077429 0 -0 0
27.2216244936 119.5560077429 0 -0 0
28.9994004965 119.5560077429 0 -0 0
30.7771764994 119.5560077429 0 -0 0
32.5549525023 119.5560077429 0 -0 0
34.3327285051 119.5560077429 0 -0 0
36.110504508 119.5560077429 -9.5916257584 0.2261924216 1
37.8882805109 119.5560077429 -9.7001784173 1.2142352628 1
39.6660565138 119.5560077429 -9.4631175559 0.2179702106 1
41.4438325167 119.5560077429 -9.3052831814 0.0494134544 1
43.2216085196 119.5560077429 -9.4964460059 -0.0682420597 1
44.9993845224 119.5560077429 -9.646317351 -0.015009616 1
46.7771605253 119.5560077429 -9.4696185726 -0.0022796517 1
48.5549365282 119.5560077429 -9.1626159364 0.6944016558 1
50.3327125311 119.5560077429 -9.5193327348 -0.185745788 1
52.110488534 119.5560077429 0 -0 0
53.8882645369 119.5560077429 0 -0 0
-125.6671117544 117.77823174 0 -0 0
-123.8893357515 117.77823174 -10.8199513304 0.3850019487 1
-122.1115597486 117.77823174 -10.723165655 0.2135369182 1
-120.3337837458 117.77823174 -10.5623957993 -0.1669730284 1
-118.5560077429 117.77823174 -10.5896921936 0.0195689193 1
-116.77823174 117.77823174 -10.5864345255 0.2784268017 1
-115.0004557371 117.77823174 -11.2675763984 0.1612080299 1
-113.2226797342 117.77823174 -11.2543882126 0.7018964402 1
-111.4449037313 117.77823174 -10.8435704977 0.2670314073 1
-109.6671277285 117.77823174 -10.5970015415 -0.1433345299 1
-107.8893517256 117.77823174 -10.5027604269 -0.1099101399 1
-106.1115757227 117.77823174 -10.2518770295 0.1386148491 1
-104.3337997198 117.77823174 -10.6856051004 0.0947458741 1
-102.5560237169 117.77823174 -10.3862647859 0.4978003155 1
-100.778247714 117.77823174 -10.3724279303 -0.0334072068 1
-99.0004717112 117.77823174 -10.3403467019 0.15009616 1
-97.2226957083 117.77823174 -10.4073257887 0.3312167753 1
-95.4449197054 117.77823174 -10.843390073 0.1909122347 1
-93.6671437025 117.77823174 -10.6263284296 -0.0658335333 1
-91.8893676996 117.77823174 -10.8759689013 0.42827094 1
-90.1115916967 117.77823174 -10.9239375263 0.293058385 1
-88.3338156939 117.77823174 -10.720671928 -0.2438840649 1
-86.556039691 117.77823174 -10.9161764006 -0.0462245196 1
-84.7782636881 117.77823174 -10.679121983 0.4412156956 1
-83.0004876852 117.77823174 -11.1960838304 0.4115659046 1
-81.2227116823 117.77823174 -10.7717865295 0.5279398307 1
-79.4449356794 117.77823174 -10.855338913 0.2015000138 1
-77.6671596766 117.77823174 -10.2406176696 0.3684644505 1
-75.8893836737 117.77823174 -10.3278673274 0.5254525474 1
-74.1116076708 117.77823174 -10.9417995707 0.4075793781 1
-72.3338316679 117.77823174 -10.3515459202 0.3360510115 1
-70.556055665 117.77823174 -10.3531038731 0.6487198422 1
-68.7782796621 117.77823174 0 -0 0
-67.0005036592 117.77823174 0 -0 0
-65.2227276564 117.77823174 0 -0 0
-63.4449516535 117.77823174 0 -0 0
-61.6671756506 117.77823174 0 -0 0
-59.8893996477 117.77823174 -10.2349729543 1.3148277561 1
-58.1116236448 117.77823174 -10.5469881034 0.7832894552 1
-56.3338476419 117.77823174 -9.8531184141 0.3492105585 1
-54.5560716391 117.77823174 -10.3062106366 0.1818509057 1
-52.7782956362 117.77823174 -10.8021794983 0.6121766825 1
-51.0005196333 117.77823174 -9.8176735539 0.4837472368 1
-49.2227436304 117.77823174 -10.6838581312 0.9318634609 1
-47.4449676275 117.77823174 -10.2174359606 0.3572781197 1
-45.6671916246 117.77823174 -11.0718070165 0.90393916 1
-43.8894156218 117.77823174 -10.0155650738 0.8137482934 1
-42.1116396189 117.77823174 -10.3665841751 0.9026590038 1
-40.333863616 117.77823174 -10.0686772344 1.2637460892 1
-38.5560876131 117.77823174 -10.3003339467 1.7277611653 1
-36.7783116102 117.77823174 -10.1184658576 0.9078913199 1
-35.0005356073 117.77823174 -10.7144121935 0.7312584108 1
-33.2227596045 117.77823174 -10.7218833509 0.7595850874 1
-31.4449836016 117.77823174 -10.5192306238 0.8123120555 1
-29.6672075987 117.77823174 -10.0229696459 0.9105246612 1
-27.8894315958 117.77823174 -9.6955947709 1.4866149734 1
-26.1116555929 117.77823174 -9.9303945959 0.1152054614 1
-24.33387959 117.77823174 -10.3757070775 0.6076674971 1
-22.5561035872 117.77823174 -9.703739657 1.348256442 1
-20.7783275843 117.77823174 -9.9740487796 1.4406052452 1
-19.0005515814 117.77823174 -9.9471554769 1.3625028329 1
-17.2227755785 117.77823174 -9.3521248679 0.6065291032 1
-15.4449995756 117.77823174 -10.6407194466 0.9256789034 1
-13.6672235727 117.77823174 -10.2545676485 0.8897801175 1
-11.8894475698 117.77823174 -9.6754344596 0.6064260034 1
-10.111671567 117.77823174 -9.7945190518 1.2386298266 1
-8.3338955641 117.77823174 -9.9638547845 1.0580175507 1
-6.5561195612 117.77823174 -10.1578242153 1.1340551026 1
-4.7783435583 117.77823174 -9.237228706 1.1869138095 1
-3.0005675554 117.77823174 -9.9851162592 1.1428858889 1
-1.2227915525 117.77823174 -9.9783775402 0.9299933446 1
0.5549844503 117.77823174 -9.4449290287 0.8715629515 1
2.3327604532 117.77823174 -9.801600005 0.8863434567 1
4.1105364561 117.77823174 -10.1971167037 0.8431933166 1