TITLE = "B00036"
VARIABLES = "x", "y", "Vx", "Vy", "isValid"
ZONE T="Frame 0", I=102, J=78, F=POINT
-125.6671117544 126.6671117544 0 -0 0
-123.8893357515 126.6671117544 0 -0 0
-122.1115597486 126.6671117544 0 -0 0
-120.3337837458 126.6671117544 0 -0 0
-118.5560077429 126.6671117544 0 -0 0
-116.77823174 126.6671117544 0 -0 0
-115.0004557371 126.6671117544 0 -0 0
-113.2226797342 126.6671117544 0 -0 0
-111.4449037313 126.6671117544 0 -0 0
-109.6671277285 126.6671117544 0 -0 0
-107.8893517256 126.6671117544 0 -0 0
-106.1115757227 126.6671117544 0 -0 0
-104.3337997198 126.6671117544 0 -0 0
-102.5560237169 126.6671117544 0 -0 0
-100.778247714 126.6671117544 0 -0 0
-99.0004717112 126.6671117544 0 -0 0
-97.2226957083 126.6671117544 0 -0 0
-95.4449197054 126.6671117544 0 -0 0
-93.6671437025 126.6671117544 0 -0 0
-91.8893676996 126.6671117544 0 -0 0
-90.1115916967 126.6671117544 0 -0 0
-88.3338156939 126.6671117544 0 -0 0
-86.556039691 126.6671117544 0 -0 0
-84.7782636881 126.6671117544 0 -0 0
-83.0004876852 126.6671117544 0 -0 0
-81.2227116823 126.6671117544 0 -0 0
-79.4449356794 126.6671117544 0 -0 0
-77.6671596766 126.6671117544 0 -0 0
-75.8893836737 126.6671117544 0 -0 0
-74.1116076708 126.6671117544 0 -0 0
-72.3338316679 126.6671117544 0 -0 0
-70.556055665 126.6671117544 0 -0 0
-68.7782796621 126.6671117544 0 -0 0
-67.0005036592 126.6671117544 0 -0 0
-65.2227276564 126.6671117544 0 -0 0
-63.4449516535 126.6671117544 0 -0 0
-61.6671756506 126.6671117544 0 -0 0
-59.8893996477 126.6671117544 0 -0 0
-58.1116236448 126.6671117544 0 -0 0
-56.3338476419 126.6671117544 0 -0 0
-54.5560716391 126.6671117544 0 -0 0
-52.7782956362 126.6671117544 0 -0 0
-51.0005196333 126.6671117544 0 -0 0
-49.2227436304 126.6671117544 0 -0 0
-47.4449676275 126.6671117544 0 -0 0
-45.6671916246 126.6671117544 0 -0 0
-43.8894156218 126.6671117544 0 -0 0
-42.1116396189 126.6671117544 0 -0 0
-40.333863616 126.6671117544 0 -0 0
-38.5560876131 126.6671117544 0 -0 0
-36.7783116102 126.6671117544 0 -0 0
-35.0005356073 126.6671117544 0 -0 0
-33.2227596045 126.6671117544 0 -0 0
-31.4449836016 126.6671117544 0 -0 0
-29.6672075987 126.6671117544 0 -0 0
-27.8894315958 126.6671117544 0 -0 0
-26.1116555929 126.6671117544 0 -0 0
-24.33387959 126.6671117544 0 -0 0
-22.5561035872 126.6671117544 0 -0 0
-20.7783275843 126.6671117544 0 -0 0
-19.0005515814 126.6671117544 0 -0 0
-17.2227755785 126.6671117544 0 -0 0
-15.4449995756 126.6671117544 0 -0 0
-13.6672235727 126.6671117544 0 -0 0
-11.8894475698 126.6671117544 0 -0 0
-10.111671567 126.6671117544 0 -0 0
-8.3338955641 126.6671117544 0 -0 0
-6.5561195612 126.6671117544 0 -0 0
-4.7783435583 126.6671117544 0 -0 0
-3.0005675554 126.6671117544 0 -0 0
-1.2227915525 126.6671117544 0 -0 0
0.5549844503 126.6671117544 0 -0 0
2.3327604532 126.6671117544 0 -0 0
4.1105364561 126.6671117544 0 -0 0
5.888312459 126.6671117544 0 -0 0
7.6660884619 126.6671117544 0 -0 0
9.4438644648 126.6671117544 0 -0 0
11.2216404676 126.6671117544 0 -0 0
12.9994164705 126.6671117544 0 -0 0
14.7771924734 126.6671117544 0 -0 0
16.5549684763 126.6671117544 0 -0 0
18.3327444792 126.6671117544 0 -0 0
20.1105204821 126.6671117544 0 -0 0
21.8882964849 126.6671117544 0 -0 0
23.6660724878 126.6671117544 0 -0 0
25.4438484907 126.6671117544 0 -0 0
27.2216244936 126.6671117544 0 -0 0
28.9994004965 126.6671117544 0 -0 0
30.7771764994 126.6671117544 0 -0 0
32.5549525023 126.6671117544 0 -0 0
34.3327285051 126.6671117544 0 -0 0
36.110504508 126.6671117544 0 -0 0
37.8882805109 126.6671117544 0 -0 0
39.6660565138 126.6671117544 0 -0 0
41.4438325167 126.6671117544 0 -0 0
43.2216085196 126.6671117544 0 -0 0
44.9993845224 126.6671117544 0 -0 0
46.7771605253 126.6671117544 0 -0 0
48.5549365282 126.6671117544 0 -0 0
50.3327125311 126.6671117544 0 -0 0
52.110488534 126.6671117544 0 -0 0
53.8882645369 126.6671117544 0 -0 0
-125.6671117544 124.8893357515 0 -0 0
-123.8893357515 124.8893357515 -10.8744331435 0.2819551068 1
-122.1115597486 124.8893357515 -10.0578517529 0.1798146842 1
-120.3337837458 124.8893357515 -10.4012328755 -0.2086611557 1
-118.5560077429 124.8893357515 -10.3710733132 0.2011377325 1
-116.77823174 124.8893357515 -10.1046461854 0.030192497 1
-115.0004557371 124.8893357515 -10.135637706 -0.2167888585 1
-113.2226797342 124.8893357515 -10.1387421563 -0.3851122082 1
-111.4449037313 124.8893357515 -10.1820970641 -0.2468324335 1
-109.6671277285 124.8893357515 -10.5961788908 0.0226504585 1
-107.8893517256 124.8893357515 -10.1969677817 -0.0986608035 1
-106.1115757227 124.8893357515 -10.8261416157 -0.6168018551 1
-104.3337997198 124.8893357515 -10.6214820219 -0.424689653 1
-102.5560237169 124.8893357515 -10.5847090354 0.0534801697 1
-100.778247714 124.8893357515 -10.3499994229 -0.0343236496 1
-99.0004717112 124.8893357515 -10.4863317564 0.1836250819 1
-97.2226957083 124.8893357515 -10.5888323124 0.2538174466 1
-95.4449197054 124.8893357515 -10.825937564 -0.3463166037 1
-93.6671437025 124.8893357515 -11.0002578867 -0.4120599246 1
-91.8893676996 124.8893357515 -10.7043606767 0.3678472835 1
-90.1115916967 124.8893357515 -10.6893345934 0.3165279144 1
-88.3338156939 124.8893357515 -11.0601996947 0.2682055998 1
-86.556039691 124.8893357515 -10.9080580055 0.3361541113 1
-84.7782636881 124.8893357515 0 -0 0
-83.0004876852 124.8893357515 -10.9034371287 -0.1591173946 1
-81.2227116823 124.8893357515 -10.9823757951 0.3665800149 1
-79.4449356794 124.8893357515 -10.6634694251 0.2535009874 1
-77.6671596766 124.8893357515 -10.5770710568 0.1228706469 1
-75.8893836737 124.8893357515 -10.8838904044 0.3342754035 1
-74.1116076708 124.8893357515 -10.5792060823 0.3136926692 1
-72.3338316679 124.8893357515 -10.7469502115 0.3431376925 1
-70.556055665 124.8893357515 -10.0781996487 0.5935829156 1
-68.7782796621 124.8893357515 0 -0 0
-67.0005036592 124.8893357515 0 -0 0
-65.2227276564 124.8893357515 0 -0 0
-63.4449516535 124.8893357515 0 -0 0
-61.6671756506 124.8893357515 0 -0 0
-59.8893996477 124.8893357515 0 -0 0
-58.1116236448 124.8893357515 -10.6967792598 0.4322431471 1
-56.3338476419 124.8893357515 -10.4329589824 0.326757708 1
-54.5560716391 124.8893357515 -10.1718472233 0.2657011332 1
-52.7782956362 124.8893357515 -10.9866859405 0.5128285468 1
-51.0005196333 124.8893357515 -10.2554039027 0.5446033397 1
-49.2227436304 124.8893357515 -10.0287733068 0.8376588608 1
-47.4449676275 124.8893357515 -10.0415992113 0.5983255075 1
-45.6671916246 124.8893357515 -9.6573075058 0.9619371067 1
-43.8894156218 124.8893357515 -10.2518584143 0.9241710684 1
-42.1116396189 124.8893357515 -10.3125842104 0.7748925473 1
-40.333863616 124.8893357515 -10.0391577502 0.4519996508 1
-38.5560876131 124.8893357515 -9.8729264677 1.2997852054 1
-36.7783116102 124.8893357515 -10.7420343546 1.1357290428 1
-35.0005356073 124.8893357515 -10.1022462506 0.7112040631 1
-33.2227596045 124.8893357515 -10.4395129809 0.7107716167 1
-31.4449836016 124.8893357515 0 -0 0
-29.6672075987 124.8893357515 -9.7840243489 1.0024739526 1
-27.8894315958 124.8893357515 -10.1472793945 0.6005879759 1
-26.1116555929 124.8893357515 -9.7627829213 0.659390674 1
-24.33387959 124.8893357515 -10.2977679066 1.1636418882 1
-22.5561035872 124.8893357515 -10.4886343192 1.0654980157 1
-20.7783275843 124.8893357515 -10.3219548389 1.1956085613 1
-19.0005515814 124.8893357515 -10.0371644869 0.7889126914 1
-17.2227755785 124.8893357515 -9.561222766 0.9767834813 1
-15.4449995756 124.8893357515 -10.0213257765 0.5384545807 1
-13.6672235727 124.8893357515 -10.2357719779 1.1323095653 1
-11.8894475698 124.8893357515 -10.3104520488 0.9146629736 1
-10.111671567 124.8893357515 0 -0 0
-8.3338955641 124.8893357515 -10.3967193944 0.8681005157 1
-6.5561195612 124.8893357515 -10.1421115158 0.8252954736 1
-4.7783435583 124.8893357515 -9.9495496839 0.8989717532 1
-3.0005675554 124.8893357515 -9.5447654566 0.2856982032 1
-1.2227915525 124.8893357515 -9.4087696294 0.8979192758 1
0.5549844503 124.8893357515 0 -0 0
2.3327604532 124.8893357515 -10.1976894805 1.2228412342 1
4.1105364561 124.8893357515 -9.8064686078 1.1546177897 1
5.888312459 124.8893357515 -9.241425728 0.5696250941 1
7.6660884619 124.8893357515 -9.758495687 0.5984729976 1
9.4438644648 124.8893357515 -9.8922548208 0.2070903154 1
11.2216404676 124.8893357515 0 -0 0
12.9994164705 124.8893357515 0 -0 0
14.7771924734 124.8893357515 0 -0 0
16.5549684763 124.8893357515 0 -0 0
18.3327444792 124.8893357515 0 -0 0
20.1105204821 124.8893357515 0 -0 0
21.8882964849 124.8893357515 0 -0 0
23.6660724878 124.8893357515 0 -0 0
25.4438484907 124.8893357515 0 -0 0
27.2216244936 124.8893357515 0 -0 0
28.9994004965 124.8893357515 0 -0 0
30.7771764994 124.8893357515 0 -0 0
32.5549525023 124.8893357515 0 -0 0
34.3327285051 124.8893357515 0 -0 0
36.110504508 124.8893357515 -8.9078619998 0.6671961898 1
37.8882805109 124.8893357515 -9.5068261534 0.3749167812 1
39.6660565138 124.8893357515 -9.5259096444 0.3208709944 1
41.4438325167 124.8893357515 -9.2747570419 -0.0218786418 1
43.2216085196 124.8893357515 -9.5603020273 1.0587879355 1
44.9993845224 124.8893357515 -9.3371567782 0.4799124961 1
46.7771605253 124.8893357515 -9.5479314804 0.5270491627 1
48.5549365282 124.8893357515 -9.1925435241 0.547630465 1
50.3327125311 124.8893357515 -9.1301323322 0.7304694108 1
52.110488534 124.8893357515 -9.4372538196 0.3846439632 1
53.8882645369 124.8893357515 0 -0 0
-125.6671117544 123.1115597486 0 -0 0
-123.8893357515 123.1115597486 -9.9753862134 0.0408461454 1
-122.1115597486 123.1115597486 -10.3188074304 0.3178180941 1
-120.3337837458 123.1115597486 -11.0608003943 -0.1830250982 1
-118.5560077429 123.1115597486 -10.4888963645 -0.0411339658 1
-116.77823174 123.1115597486 -10.2906826576 0.0165289065 1
-115.0004557371 123.1115597486 -10.1862282168 -0.3109691155 1
-113.2226797342 123.1115597486 -10.1496907848 -0.5721224009 1
-111.4449037313 123.1115597486 -10.3306438629 -0.0805209623 1
-109.6671277285 123.1115597486 -10.7196130069 -0.1388267765 1
-107.8893517256 123.1115597486 -10.2257856144 -0.2027858977 1
-106.1115757227 123.1115597486 -10.5880418804 -0.582539779 1
-104.3337997198 123.1115597486 -10.6695644862 -0.0662058382 1
-102.5560237169 123.1115597486 -9.9038850537 0.2945547644 1
-100.778247714 123.1115597486 -10.3209095212 -0.3239854683 1
-99.0004717112 123.1115597486 -10.6622959486 0.162884834 1
-97.2226957083 123.1115597486 -10.9791732568 0.1274199266 1
-95.4449197054 123.1115597486 -10.8172943621 -0.1859519876 1
-93.6671437025 123.1115597486 -10.8490899181 0.131409317 1
-91.8893676996 123.1115597486 -10.8454062473 0.155430144 1
-90.1115916967 123.1115597486 -11.3066054095 -0.7396266798 1
-88.3338156939 123.1115597486 -11.327821778 0.212998508 1
-86.556039691 123.1115597486 -11.062487222 -0.2711324892 1
-84.7782636881 123.1115597486 -10.4233234447 -0.3894395369 1
-83.0004876852 123.1115597486 -11.0160214202 0.1997344293 1
-81.2227116823 123.1115597486 -11.1491032454 0.4756238298 1
-79.4449356794 123.1115597486 -10.9501986265 0.4129620481 1
-77.6671596766 123.1115597486 -10.696748473 0.2130199872 1
-75.8893836737 123.1115597486 -10.3494996751 0.5975508269 1
-74.1116076708 123.1115597486 -10.5627337376 -0.1445817514 1
-72.3338316679 123.1115597486 -10.6306256875 0.2878618675 1
-70.556055665 123.1115597486 -10.4690467846 0.3998440275 1
-68.7782796621 123.1115597486 0 -0 0
-67.0005036592 123.1115597486 0 -0 0
-65.2227276564 123.1115597486 0 -0 0
-63.4449516535 123.1115597486 0 -0 0
-61.6671756506 123.1115597486 0 -0 0
-59.8893996477 123.1115597486 -10.4835996111 0.5236769393 1
-58.1116236448 123.1115597486 -11.0575849686 0.1723929289 1
-56.3338476419 123.1115597486 -10.84726634 0.9837713582 1
-54.5560716391 123.1115597486 -10.3393157036 0.455820072 1
-52.7782956362 123.1115597486 -10.9979180935 0.625790155 1
-51.0005196333 123.1115597486 -10.7831962433 0.9041654068 1
-49.2227436304 123.1115597486 -10.6134631467 1.3569483299 1
-47.4449676275 123.1115597486 -10.2738687947 0.4704072651 1
-45.6671916246 123.1115597486 -10.0188771557 0.8085002259 1
-43.8894156218 123.1115597486 -10.6512399245 0.7973468297 1
-42.1116396189 123.1115597486 -10.7423887603 0.61505059 1
-40.333863616 123.1115597486 -10.3700480427 0.6327007071 1
-38.5560876131 123.1115597486 -10.5944627083 1.0418953158 1
-36.7783116102 123.1115597486 -10.1626598835 0.7431220502 1
-35.0005356073 123.1115597486 -10.2482943106 1.0162435069 1
-33.2227596045 123.1115597486 -10.5108888457 1.0903192983 1
-31.4449836016 123.1115597486 0 -0 0
-29.6672075987 123.1115597486 -9.9729103857 0.5417408876 1
-27.8894315958 123.1115597486 -10.027089343 0.7339261187 1
-26.1116555929 123.1115597486 -9.7209430082 0.7954452108 1
-24.33387959 123.1115597486 -10.7989676524 0.6289676343 1
-22.5561035872 123.1115597486 -10.3654142784 1.3300092051 1
-20.7783275843 123.1115597486 -10.1201154548 1.2853268871 1
-19.0005515814 123.1115597486 -10.1295848872 1.2990133886 1
-17.2227755785 123.1115597486 -9.5970098603 0.8015982655 1
-15.4449995756 123.1115597486 -9.7486611094 1.0161762056 1
-13.6672235727 123.1115597486 -10.041360077 0.7811358144 1
-11.8894475698 123.1115597486 -9.9287306793 0.7592886754 1
-10.111671567 123.1115597486 -10.1488029808 0.8047571296 1
-8.3338955641 123.1115597486 -10.114260244 0.5374178547 1
-6.5561195612 123.1115597486 -9.6164198341 0.7133949344 1
-4.7783435583 123.1115597486 -10.1128139826 0.7752763078 1
-3.0005675554 123.1115597486 0 -0 0
-1.2227915525 123.1115597486 -9.634443688 1.12928244 1
0.5549844503 123.1115597486 -9.4987299534 0.3595821143 1
2.3327604532 123.1115597486 -10.2065259946 1.0415029637 1
4.1105364561 123.1115597486 -9.6556765239 0.9899530518 1
5.888312459 123.1115597486 -9.6552440774 0.9818668754 1
7.6660884619 123.1115597486 -9.7049195772 1.0851027336 1
9.4438644648 123.1115597486 -9.3532919007 1.0481256954 1
11.2216404676 123.1115597486 -10.1788837863 0.6889359332 1
12.9994164705 123.1115597486 0 -0 0
14.7771924734 123.1115597486 0 -0 0
16.5549684763 123.1115597486 0 -0 0
18.3327444792 123.1115597486 0 -0 0
20.1105204821 123.1115597486 0 -0 0
21.8882964849 123.1115597486 0 -0 0
23.6660724878 123.1115597486 0 -0 0
25.4438484907 123.1115597486 0 -0 0
27.2216244936 123.1115597486 0 -0 0
28.9994004965 123.1115597486 0 -0 0
30.7771764994 123.1115597486 0 -0 0
32.5549525023 123.1115597486 0 -0 0
34.3327285051 123.1115597486 0 -0 0
36.110504508 123.1115597486 -9.4318926288 0.4539342044 1
37.8882805109 123.1115597486 -9.4048876347 0.5223667124 1
39.6660565138 123.1115597486 -9.4618130568 0.6978440443 1
41.4438325167 123.1115597486 -9.4071701502 0.2705740318 1
43.2216085196 123.1115597486 0 -0 0
44.9993845224 123.1115597486 -8.7565916473 0.6667594475 1
46.7771605253 123.1115597486 -9.0613633179 0.8278958803 1
48.5549365282 123.1115597486 -8.7738207734 0.1367547565 1
50.3327125311 123.1115597486 -9.8598084471 0.9938121355 1
52.110488534 123.1115597486 -9.3212564943 0.7372353367 1
53.8882645369 123.1115597486 0 -0 0
-125.6671117544 121.3337837458 0 -0 0
-123.8893357515 121.3337837458 -10.2342526874 -0.2706914511 1
-122.1115597486 121.3337837458 -9.9516116804 0.2799532519 1
-120.3337837458 121.3337837458 -10.6861470905 -0.0218815056 1
-118.5560077429 121.3337837458 -10.4802818015 0.117015436 1
-116.77823174 121.3337837458 -10.3203639513 0.055643834 1
-115.0004557371 121.3337837458 -10.475776912 0.3249405736 1
-113.2226797342 121.3337837458 -10.6092224505 -0.3330797319 1
-111.4449037313 121.3337837458 -10.4746385181 -0.2917825247 1
-109.6671277285 121.3337837458 -10.3093408618 0.1691281011 1
-107.8893517256 121.3337837458 -10.3040698833 -0.2151378294 1
-106.1115757227 121.3337837458 -10.5953526603 -0.6283347159 1
-104.3337997198 121.3337837458 -10.6466061602 0.122866351 1
-102.5560237169 121.3337837458 -10.3158633576 0.0719565172 1
-100.778247714 121.3337837458 -10.1980918562 -0.492283043 1
-99.0004717112 121.3337837458 -10.8763820166 0.0570099067 1
-97.2226957083 121.3337837458 -11.069474383 0.0462860931 1
-95.4449197054 121.3337837458 -10.7012769896 -0.3918251523 1
-93.6671437025 121.3337837458 -10.740223664 0.0786265031 1
-91.8893676996 121.3337837458 -10.5138608413 0.117486545 1
-90.1115916967 121.3337837458 -10.830602115 -0.3092264421 1
-88.3338156939 121.3337837458 -11.0434338018 0.4622280125 1
-86.556039691 121.3337837458 -11.092408366 -0.2971408517 1
-84.7782636881 121.3337837458 -10.7411687457 -0.0267100141 1
-83.0004876852 121.3337837458 -10.8457778363 0.6615328592 1
-81.2227116823 121.3337837458 -10.8434738416 0.5025543629 1
-79.4449356794 121.3337837458 -11.0159562668 0.5130805686 1
-77.6671596766 121.3337837458 -10.4367393093 0.5093961818 1
-75.8893836737 121.3337837458 -9.9944582488 0.6508534358 1
-74.1116076708 121.3337837458 -10.700525936 0.4286747476 1
-72.3338316679 121.3337837458 -10.566574206 0.4307682468 1
-70.556055665 121.3337837458 -10.7993027269 0.5017467477 1
-68.7782796621 121.3337837458 0 -0 0
-67.0005036592 121.3337837458 0 -0 0
-65.2227276564 121.3337837458 0 -0 0
-63.4449516535 121.3337837458 0 -0 0
-61.6671756506 121.3337837458 0 -0 0
-59.8893996477 121.3337837458 -10.6831944261 0.7500927439 1
-58.1116236448 121.3337837458 -10.7948100088 0.3887393173 1
-56.3338476419 121.3337837458 -10.3921271564 0.962372417 1
-54.5560716391 121.3337837458 -10.8374267506 0.4149195128 1
-52.7782956362 121.3337837458 -10.3311149718 0.63845425 1
-51.0005196333 121.3337837458 -11.1461656164 1.3944780976 1
-49.2227436304 121.3337837458 -10.7475573549 1.0337547255 1
-47.4449676275 121.3337837458 -10.4079773223 0.4020234432 1
-45.6671916246 121.3337837458 -10.4261415066 0.6774460306 1
-43.8894156218 121.3337837458 -10.3957256266 0.7093024442 1
-42.1116396189 121.3337837458 -10.351527305 0.5266023968 1
-40.333863616 121.3337837458 0 -0 0
-38.5560876131 121.3337837458 -10.2951689319 1.1206506936 1
-36.7783116102 121.3337837458 -10.2828785737 0.7438981628 1
-35.0005356073 121.3337837458 -10.3255891077 0.9320252703 1
-33.2227596045 121.3337837458 -9.886226345 0.9674257403 1
-31.4449836016 121.3337837458 -10.8480739553 1.1791641394 1
-29.6672075987 121.3337837458 -10.9387545461 1.43061029 1
-27.8894315958 121.3337837458 -10.2575074254 1.003996107 1
-26.1116555929 121.3337837458 -10.3286190969 0.9082621929 1
-24.33387959 121.3337837458 -10.1436451257 1.0919731913 1
-22.5561035872 121.3337837458 -10.1455453127 1.217488635 1
-20.7783275843 121.3337837458 -10.0875072717 1.0405149237 1
-19.0005515814 121.3337837458 -10.0482677652 1.2256965265 1
-17.2227755785 121.3337837458 -10.0037887829 0.8154480085 1
-15.4449995756 121.3337837458 -9.8642403076 1.4615846273 1
-13.6672235727 121.3337837458 -9.7429891871 0.5717815987 1
-11.8894475698 121.3337837458 -9.8274408302 0.8076611079 1
-10.111671567 121.3337837458 -9.6926535621 0.9580794549 1
-8.3338955641 121.3337837458 -9.7368189491 0.6698939685 1
-6.5561195612 121.3337837458 -9.0219247714 0.6776751413 1
-4.7783435583 121.3337837458 -9.5316073416 0.4632847856 1
-3.0005675554 121.3337837458 -10.2167629479 1.4756491616 1
-1.2227915525 121.3337837458 -9.5990618332 0.6368948652 1
0.5549844503 121.3337837458 -10.0078154038 0.9772474305 1
2.3327604532 121.3337837458 -10.076415449 1.0229020371 1
4.1105364561 121.3337837458 -9.614323471 0.9577128778 1
5.888312459 121.3337837458 -9.7130830785 1.2262177534 1
7.6660884619 121.3337837458 -10.117197157 1.3535345802 1
9.4438644648 121.3337837458 -9.6499530518 1.2122677745 1
11.2216404676 121.3337837458 -10.2327276692 0.7932457479 1
12.9994164705 121.3337837458 0 -0 0
14.7771924734 121.3337837458 0 -0 0
16.5549684763 121.3337837458 0 -0 0
18.3327444792 121.3337837458 0 -0 0
20.1105204821 121.3337837458 0 -0 0
21.8882964849 121.3337837458 0 -0 0
23.6660724878 121.3337837458 0 -0 0
25.4438484907 121.3337837458 0 -0 0
27.2216244936 121.3337837458 0 -0 0
28.9994004965 121.3337837458 0 -0 0
30.7771764994 121.3337837458 0 -0 0
32.5549525023 121.3337837458 0 -0 0
34.3327285051 121.3337837458 0 -0 0
36.110504508 121.3337837458 -9.3567500406 0.3513899742 1
37.8882805109 121.3337837458 -8.836041517 0.3285820021 1
39.6660565138 121.3337837458 -9.3370336312 0.1799492868 1
41.4438325167 121.3337837458 -9.5393870825 -0.0992836983 1
43.2216085196 121.3337837458 -9.6340957261 0.7308861059 1
44.9993845224 121.3337837458 -9.6814600715 0.9992993372 1
46.7771605253 121.3337837458 -9.4101271104 0.5406339964 1
48.5549365282 121.3337837458 -9.8451510888 0.355518263 1
50.3327125311 121.3337837458 -9.9849873845 0.2539706644 1
52.110488534 121.3337837458 -8.6118151518 1.0596442368 1
53.8882645369 121.3337837458 0 -0 0
-125.6671117544 119.5560077429 0 -0 0
-123.8893357515 119.5560077429 -10.6177410734 -0.1163810857 1
-122.1115597486 119.5560077429 -9.8697461246 -0.1458848186 1
-120.3337837458 119.5560077429 -10.0603948819 -0.0537006887 1
-118.5560077429 119.5560077429 -10.0880370902 0.0448412636 1
-116.77823174 119.5560077429 -10.2021113174 -0.1813081997 1
-115.0004557371 119.5560077429 -10.6070566382 0.0832488118 1
-113.2226797342 119.5560077429 -10.6921977614 -0.3236904882 1
-111.4449037313 119.5560077429 -10.3424931829 -0.5761762287 1
-109.6671277285 119.5560077429 -10.3926985012 -0.2009873786 1
-107.8893517256 119.5560077429 -10.4357698845 -0.0419788116 1
-106.1115757227 119.5560077429 -10.7936365324 -0.2497879618 1
-104.3337997198 119.5560077429 -10.3427509325 -0.11484318 1
-102.5560237169 119.5560077429 -10.4439663205 0.1485783015 1
-100.778247714 119.5560077429 -10.6627541701 -0.2056440539 1
-99.0004717112 119.5560077429 -10.7012240077 -0.1342459941 1
-97.2226957083 119.5560077429 -10.4174682339 -0.0510916904 1
-95.4449197054 119.5560077429 -10.2745890615 -0.191893115 1
-93.6671437025 119.5560077429 -10.7829478013 -0.133680377 1
-91.8893676996 119.5560077429 -10.5739143407 0.2007811789 1
-90.1115916967 119.5560077429 -10.3743467326 -0.1646489865 1
-88.3338156939 119.5560077429 -10.8253862663 -0.0170601569 1
-86.556039691 119.5560077429 -11.1144087228 -0.2662867975 1
-84.7782636881 119.5560077429 -10.7570289352 0.1772758511 1
-83.0004876852 119.5560077429 -10.79176928 0.0820746194 1
-81.2227116823 119.5560077429 -10.7859863823 0.3260460328 1
-79.4449356794 119.5560077429 -10.6889565607 0.40812638 1
-77.6671596766 119.5560077429 -10.6529568229 0.4773350005 1
-75.8893836737 119.5560077429 -10.8299906758 0.2882671071 1
-74.1116076708 119.5560077429 -10.7875815656 0.5804376881 1
-72.3338316679 119.5560077429 -11.2894006264 0.5649426438 1
-70.556055665 119.5560077429 -11.0311892658 0.6405835478 1
-68.7782796621 119.5560077429 0 -0 0
-67.0005036592 119.5560077429 0 -0 0
-65.2227276564 119.5560077429 0 -0 0
-63.4449516535 119.5560077429 0 -0 0
-61.6671756506 119.5560077429 0 -0 0
-59.8893996477 119.5560077429 -11.0550189285 0.8748463945 1
-58.1116236448 119.5560077429 -10.3313712894 0.39104188 1
-56.3338476419 119.5560077429 -11.2125153648 0.6977881986 1
-54.5560716391 119.5560077429 -11.0517498049 0.4359346935 1
-52.7782956362 119.5560077429 -11.0269743445 0.5872752111 1
-51.0005196333 119.5560077429 -10.5309646725 0.9977385204 1
-49.2227436304 119.5560077429 -10.8385329258 0.6010118307 1
-47.4449676275 119.5560077429 -10.3711878686 0.6226527701 1
-45.6671916246 119.5560077429 -10.5155526808 0.927318477 1
-43.8894156218 119.5560077429 -10.6555099755 0.9933839848 1
-42.1116396189 119.5560077429 -10.5569300767 0.6191029859 1
-40.333863616 119.5560077429 -10.1955344078 0.8348436628 1
-38.5560876131 119.5560077429 -10.574031044 1.0715823372 1
-36.7783116102 119.5560077429 -10.5508922933 0.659758683 1
-35.0005356073 119.5560077429 -10.5826527667 0.407162683 1
-33.2227596045 119.5560077429 -10.7775386405 0.6371497509 1
-31.4449836016 119.5560077429 -10.8445614016 1.3812455217 1
-29.6672075987 119.5560077429 -11.0027888442 1.2846409868 1
-27.8894315958 119.5560077429 -10.334345433 1.1081097456 1
-26.1116555929 119.5560077429 -9.9616052036 1.6455820141 1
-24.33387959 119.5560077429 -9.9300967519 0.9640420614 1
-22.5561035872 119.5560077429 -9.9048329993 1.1227370331 1
-20.7783275843 119.5560077429 -10.088238994 0.9844744417 1
-19.0005515814 119.5560077429 -10.25779095 0.8031748337 1
-17.2227755785 119.5560077429 -10.0476677815 1.0613138812 1
-15.4449995756 119.5560077429 -9.8414466549 0.9719392215 1
-13.6672235727 119.5560077429 -9.6883448486 0.5289020957 1
-11.8894475698 119.5560077429 -10.3571577009 1.0926533637 1
-10.111671567 119.5560077429 -9.7101117989 1.001673497 1
-8.3338955641 119.5560077429 -9.1414718809 0.9328199981 1
-6.5561195612 119.5560077429 -9.4902485609 1.173815836 1
-4.7783435583 119.5560077429 -9.4154224319 1.4980833969 1
-3.0005675554 119.5560077429 -9.7823260657 0.7965163034 1
-1.2227915525 119.5560077429 0 -0 0
0.5549844503 119.5560077429 -9.4454001376 0.5073127062 1
2.3327604532 119.5560077429 -9.9378020318 1.5792974191 1
4.1105364561 119.5560077429 -9.9074391337 1.2602406952 1
5.888312459 119.5560077429 -9.5905918963 1.1401236728 1
7.6660884619 119.5560077429 -10.3015267543 0.8394444925 1
9.4438644648 119.5560077429 -10.1343962123 1.264245837 1
11.2216404676 119.5560077429 -9.916245577 1.088053966 1
12.9994164705 119.5560077429 0 -0 0
14.7771924734 119.5560077429 0 -0 0
16.5549684763 119.5560077429 0 -0 0
18.3327444792 119.5560077429 0 -0 0
20.1105204821 119.5560077429 0 -0 0
21.8882964849 119.5560077429 0 -0 0
23.6660724878 119.5560077429 0 -0 0
25.4438484907 119.5560077429 0 -0 0
27.2216244936 119.5560077429 0 -0 0
28.9994004965 119.5560077429 0 -0 0
30.7771764994 119.5560077429 0 -0 0
32.5549525023 119.5560077429 0 -0 0
34.3327285051 119.5560077429 0 -0 0
36.110504508 119.5560077429 -9.4823098745 0.3045597431 1
37.8882805109 119.5560077429 -9.3871229623 0.6437066133 1
39.6660565138 119.5560077429 -9.2171657667 0.407088222 1
41.4438325167 119.5560077429 -9.5718277284 0.23102093 1
43.2216085196 119.5560077429 -9.3332418488 0.8594859527 1
44.9993845224 119.5560077429 -9.8312082696 1.1590482182 1
46.7771605253 119.5560077429 0 -0 0
48.5549365282 119.5560077429 -9.3342384805 -0.206826838 1
50.3327125311 119.5560077429 -9.8655004165 -0.0643385858 1
52.110488534 119.5560077429 -9.1671766717 0.7678717357 1
53.8882645369 119.5560077429 0 -0 0
-125.6671117544 117.77823174 0 -0 0
-123.8893357515 117.77823174 -10.4741316106 0.1621817505 1
-122.1115597486 117.77823174 -10.7054059943 -0.1846073941 1
-120.3337837458 117.77823174 -10.4393153729 -0.3984994339 1
-118.5560077429 117.77823174 -10.020794526 -0.0139098846 1
-116.77823174 117.77823174 -9.9728502441 -0.27832227 1
-115.0004557371 117.77823174 -10.5466408575 -0.3403153348 1
-113.2226797342 117.77823174 -10.6256031509 -0.2262096049 1
-111.4449037313 117.77823174 -9.9663549552 -0.1620800826 1
-109.6671277285 117.77823174 -10.6407674167 -0.3250851997 1
-107.8893517256 117.77823174 -11.0400809096 -0.2358064801 1
-106.1115757227 117.77823174 -10.6297786938 -0.1466136771 1
-104.3337997198 117.77823174 -10.0773261641 -0.1427116352 1
-102.5560237169 117.77823174 -10.3042245331 -0.1273726725 1
-100.778247714 117.77823174 -10.8030894975 -0.3193388165 1
-99.0004717112 117.77823174 -10.7892204233 -0.0421320294 1
-97.2226957083 117.77823174 -10.574252279 -0.1782982576 1
-95.4449197054 117.77823174 -10.2172612637 -0.3272187933 1
-93.6671437025 117.77823174 -10.6930576425 -0.2348270318 1
-91.8893676996 117.77823174 -10.8504968011 -0.2357291553 1
-90.1115916967 117.77823174 -10.4574681016 -0.3733960588 1
-88.3338156939 117.77823174 -10.4885011485 -0.3548667294 1
-86.556039691 117.77823174 -10.6596661871 0.0199512478 1
-84.7782636881 117.77823174 -10.576524055 0.1101177714 1
-83.0004876852 117.77823174 -10.7665792724 -0.0785563379 1
-81.2227116823 117.77823174 -10.9717242945 0.5202388466 1
-79.4449356794 117.77823174 -10.8034396073 0.6789810724 1
-77.6671596766 117.77823174 -11.0787848698 0.1746210306 1
-75.8893836737 117.77823174 -10.3974009988 0.3183407529 1
-74.1116076708 117.77823174 -10.2671315076 0.4156827379 1
-72.3338316679 117.77823174 -11.3388033412 0.4792666903 1
-70.556055665 117.77823174 -11.2763456112 0.6518486355 1
-68.7782796621 117.77823174 0 -0 0
-67.0005036592 117.77823174 0 -0 0
-65.2227276564 117.77823174 0 -0 0
-63.4449516535 117.77823174 0 -0 0
-61.6671756506 117.77823174 0 -0 0
-59.8893996477 117.77823174 0 -0 0
-58.1116236448 117.77823174 -10.9763917095 0.8148551845 1
-56.3338476419 117.77823174 -10.8688242267 0.9105260932 1
-54.5560716391 117.77823174 -10.8632160259 0.7097191393 1
-52.7782956362 117.77823174 -10.7754344017 0.6273810426 1
-51.0005196333 117.77823174 -10.7806975045 0.868143474 1
-49.2227436304 117.77823174 -10.8075807835 0.7670698482 1
-47.4449676275 117.77823174 -10.2204602221 0.8045265869 1
-45.6671916246 117.77823174 -10.5354244558 0.8095212006 1
-43.8894156218 117.77823174 -10.365845293 0.6129728422 1
-42.1116396189 117.77823174 -10.4139728635 0.7601779113 1
-40.333863616 117.77823174 -10.9376326195 0.7598242217 1
-38.5560876131 117.77823174 -10.5768125913 0.7624604269 1
-36.7783116102 117.77823174 -10.6073401627 0.9915439394 1
-35.0005356073 117.77823174 -10.7334792172 1.1971693781 1
-33.2227596045 117.77823174 -10.1058117862 0.8235284572 1
-31.4449836016 117.77823174 -10.193652836 1.4336016169 1
-29.6672075987 117.77823174 0 -0 0
-27.8894315958 117.77823174 -10.6076193914 1.0835233015 1
-26.1116555929 117.77823174 -9.8128020872 0.9182686035 1
-24.33387959 117.77823174 -10.2886793708 1.0020286187 1
-22.5561035872 117.77823174 -9.6528040483 1.6144845298 1
-20.7783275843 117.77823174 -10.1123314181 0.969854314 1
-19.0005515814 117.77823174 -10.2506756302 0.9053424631 1
-17.2227755785 117.77823174 -10.7760078945 0.9334514845 1
-15.4449995756 117.77823174 -9.9183075735 1.0918228374 1
-13.6672235727 117.77823174 -10.2806705192 0.8783804273 1
-11.8894475698 117.77823174 -10.3022685003 1.1539390492 1
-10.111671567 117.77823174 -9.9220821726 1.0172916884 1
-8.3338955641 117.77823174 -10.0225429272 1.1481267966 1
-6.5561195612 117.77823174 -10.1101090441 1.0908161821 1
-4.7783435583 117.77823174 -9.3142614577 1.8983999652 1
-3.0005675554 117.77823174 -10.0562565695 1.159324583 1
-1.2227915525 117.77823174 -10.6277374605 0.6999805018 1
0.5549844503 117.77823174 -10.1343031361 1.1196511981 1
2.3327604532 117.77823174 -9.9528531741 1.5801909509 1