TITLE = "B00025"
VARIABLES = "x", "y", "Vx", "Vy", "isValid"
ZONE T="Frame 0", I=102, J=78, F=POINT
-125.6671117544 126.6671117544 0 -0 0
-123.8893357515 126.6671117544 0 -0 0
-122.1115597486 126.6671117544 0 -0 0
-120.3337837458 126.6671117544 0 -0 0
-118.5560077429 126.6671117544 0 -0 0
-116.77823174 126.6671117544 0 -0 0
-115.0004557371 126.6671117544 0 -0 0
-113.2226797342 126.6671117544 0 -0 0
-111.4449037313 126.6671117544 0 -0 0
-109.6671277285 126.6671117544 0 -0 0
-107.8893517256 126.6671117544 0 -0 0
-106.1115757227 126.6671117544 0 -0 0
-104.3337997198 126.6671117544 0 -0 0
-102.5560237169 126.6671117544 0 -0 0
-100.778247714 126.6671117544 0 -0 0
-99.0004717112 126.6671117544 0 -0 0
-97.2226957083 126.6671117544 0 -0 0
-95.4449197054 126.6671117544 0 -0 0
-93.6671437025 126.6671117544 0 -0 0
-91.8893676996 126.6671117544 0 -0 0
-90.1115916967 126.6671117544 0 -0 0
-88.3338156939 126.6671117544 0 -0 0
-86.556039691 126.6671117544 0 -0 0
-84.7782636881 126.6671117544 0 -0 0
-83.0004876852 126.6671117544 0 -0 0
-81.2227116823 126.6671117544 0 -0 0
-79.4449356794 126.6671117544 0 -0 0
-77.6671596766 126.6671117544 0 -0 0
-75.8893836737 126.6671117544 0 -0 0
-74.1116076708 126.6671117544 0 -0 0
-72.3338316679 126.6671117544 0 -0 0
-70.556055665 126.6671117544 0 -0 0
-68.7782796621 126.6671117544 0 -0 0
-67.0005036592 126.6671117544 0 -0 0
-65.2227276564 126.6671117544 0 -0 0
-63.4449516535 126.6671117544 0 -0 0
-61.6671756506 126.6671117544 0 -0 0
-59.8893996477 126.6671117544 0 -0 0
-58.1116236448 126.6671117544 0 -0 0
-56.3338476419 126.6671117544 0 -0 0
-54.5560716391 126.6671117544 0 -0 0
-52.7782956362 126.6671117544 0 -0 0
-51.0005196333 126.6671117544 0 -0 0
-49.2227436304 126.6671117544 0 -0 0
-47.4449676275 126.6671117544 0 -0 0
-45.6671916246 126.6671117544 0 -0 0
-43.8894156218 126.6671117544 0 -0 0
-42.1116396189 126.6671117544 0 -0 0
-40.333863616 126.6671117544 0 -0 0
-38.5560876131 126.6671117544 0 -0 0
-36.7783116102 126.6671117544 0 -0 0
-35.0005356073 126.6671117544 0 -0 0
-33.2227596045 126.6671117544 0 -0 0
-31.4449836016 126.6671117544 0 -0 0
-29.6672075987 126.6671117544 0 -0 0
-27.8894315958 126.6671117544 0 -0 0
-26.1116555929 126.6671117544 0 -0 0
-24.33387959 126.6671117544 0 -0 0
-22.5561035872 126.6671117544 0 -0 0
-20.7783275843 126.6671117544 0 -0 0
-19.0005515814 126.6671117544 0 -0 0
-17.2227755785 126.6671117544 0 -0 0
-15.4449995756 126.6671117544 0 -0 0
-13.6672235727 126.6671117544 0 -0 0
-11.8894475698 126.6671117544 0 -0 0
-10.111671567 126.6671117544 0 -0 0
-8.3338955641 126.6671117544 0 -0 0
-6.5561195612 126.6671117544 0 -0 0
-4.7783435583 126.6671117544 0 -0 0
-3.0005675554 126.6671117544 0 -0 0
-1.2227915525 126.6671117544 0 -0 0
0.5549844503 126.6671117544 0 -0 0
2.3327604532 126.6671117544 0 -0 0
4.1105364561 126.6671117544 0 -0 0
5.888312459 126.6671117544 0 -0 0
7.6660884619 126.6671117544 0 -0 0
9.4438644648 126.6671117544 0 -0 0
11.2216404676 126.6671117544 0 -0 0
12.9994164705 126.6671117544 0 -0 0
14.7771924734 126.6671117544 0 -0 0
16.5549684763 126.6671117544 0 -0 0
18.3327444792 126.6671117544 0 -0 0
20.1105204821 126.6671117544 0 -0 0
21.8882964849 126.6671117544 0 -0 0
23.6660724878 126.6671117544 0 -0 0
25.4438484907 126.6671117544 0 -0 0
27.2216244936 126.6671117544 0 -0 0
28.9994004965 126.6671117544 0 -0 0
30.7771764994 126.6671117544 0 -0 0
32.5549525023 126.6671117544 0 -0 0
34.3327285051 126.6671117544 0 -0 0
36.110504508 126.6671117544 0 -0 0
37.8882805109 126.6671117544 0 -0 0
39.6660565138 126.6671117544 0 -0 0
41.4438325167 126.6671117544 0 -0 0
43.2216085196 126.6671117544 0 -0 0
44.9993845224 126.6671117544 0 -0 0
46.7771605253 126.6671117544 0 -0 0
48.5549365282 126.6671117544 0 -0 0
50.3327125311 126.6671117544 0 -0 0
52.110488534 126.6671117544 0 -0 0
53.8882645369 126.6671117544 0 -0 0
-125.6671117544 124.8893357515 0 -0 0
-123.8893357515 124.8893357515 -10.3339387614 -0.2243194415 1
-122.1115597486 124.8893357515 -10.0778030008 -0.1518703362 1
-120.3337837458 124.8893357515 -10.6390684175 -0.0386982324 1
-118.5560077429 124.8893357515 -10.7818759928 -0.0083811565 1
-116.77823174 124.8893357515 -10.3591509642 -0.2954382726 1
-115.0004557371 124.8893357515 -10.8597492943 -0.0873957158 1
-113.2226797342 124.8893357515 -10.702502016 -0.1021948364 1
-111.4449037313 124.8893357515 -10.6683036613 -0.0914538395 1
-109.6671277285 124.8893357515 -10.3621881131 0.0472884525 1
-107.8893517256 124.8893357515 -10.2672260158 0.3378867612 1
-106.1115757227 124.8893357515 -10.3368914258 -0.0794026156 1
-104.3337997198 124.8893357515 -10.1068370567 0.1234233765 1
-102.5560237169 124.8893357515 -10.3614034089 -0.0480788845 1
-100.778247714 124.8893357515 -10.4076207688 -0.1272795963 1
-99.0004717112 124.8893357515 -10.5105473275 -0.1266266307 1
-97.2226957083 124.8893357515 -10.7453235254 -0.2041920648 1
-95.4449197054 124.8893357515 -10.9493129704 -0.1120738042 1
-93.6671437025 124.8893357515 -10.6921254483 -0.1101979602 1
-91.8893676996 124.8893357515 -10.7693808669 -0.2831464825 1
-90.1115916967 124.8893357515 -10.6161480379 0.0115471803 1
-88.3338156939 124.8893357515 -11.3200234219 -0.0530692023 1
-86.556039691 124.8893357515 -10.9102159421 0.3729306776 1
-84.7782636881 124.8893357515 -11.4004341247 -0.1298127017 1
-83.0004876852 124.8893357515 -11.2576344251 0.5247866944 1
-81.2227116823 124.8893357515 -10.3916503197 0.3109862988 1
-79.4449356794 124.8893357515 -11.0094881848 0.451895119 1
-77.6671596766 124.8893357515 -11.1404908303 0.2133479019 1
-75.8893836737 124.8893357515 -10.7652540101 0.1108795646 1
-74.1116076708 124.8893357515 -10.6161129554 0.4057536521 1
-72.3338316679 124.8893357515 -10.8243788951 0.454167611 1
-70.556055665 124.8893357515 -10.7506260066 -0.1212525524 1
-68.7782796621 124.8893357515 0 -0 0
-67.0005036592 124.8893357515 0 -0 0
-65.2227276564 124.8893357515 0 -0 0
-63.4449516535 124.8893357515 0 -0 0
-61.6671756506 124.8893357515 0 -0 0
-59.8893996477 124.8893357515 0 -0 0
-58.1116236448 124.8893357515 -10.3584564723 0.5152112983 1
-56.3338476419 124.8893357515 -10.0123303169 0.3223100961 1
-54.5560716391 124.8893357515 -10.0165946401 1.0130144777 1
-52.7782956362 124.8893357515 -10.910341953 0.6498453486 1
-51.0005196333 124.8893357515 -10.5768476739 0.5464448171 1
-49.2227436304 124.8893357515 -10.6710121795 0.2925500456 1
-47.4449676275 124.8893357515 -11.0837386732 0.7849132774 1
-45.6671916246 124.8893357515 -10.5399035704 1.0202844472 1
-43.8894156218 124.8893357515 -11.3614537997 0.6838339238 1
-42.1116396189 124.8893357515 -10.6334974472 0.8093994855 1
-40.333863616 124.8893357515 -10.7500918922 0.7673104144 1
-38.5560876131 124.8893357515 -10.3741004386 0.9438029932 1
-36.7783116102 124.8893357515 -9.6998118401 0.2670614781 1
-35.0005356073 124.8893357515 -9.6559686401 0.7005060245 1
-33.2227596045 124.8893357515 -10.0352385249 0.7819076311 1
-31.4449836016 124.8893357515 0 -0 0
-29.6672075987 124.8893357515 0 -0 0
-27.8894315958 124.8893357515 -10.4766847632 1.1767427255 1
-26.1116555929 124.8893357515 -11.3499087674 1.7042143111 1
-24.33387959 124.8893357515 -10.6245342062 1.7045579772 1
-22.5561035872 124.8893357515 -10.1740151835 1.3652865281 1
-20.7783275843 124.8893357515 -10.0945867929 1.1710235492 1
-19.0005515814 124.8893357515 -9.9631030149 0.5931676525 1
-17.2227755785 124.8893357515 -9.753310625 0.3455376273 1
-15.4449995756 124.8893357515 -9.9237303378 0.6062656259 1
-13.6672235727 124.8893357515 -10.2490274649 0.7033627488 1
-11.8894475698 124.8893357515 -10.4937091216 1.3262632448 1
-10.111671567 124.8893357515 -10.0214217166 1.299351327 1
-8.3338955641 124.8893357515 -10.003463732 0.4429368899 1
-6.5561195612 124.8893357515 -9.9165462848 0.4674445771 1
-4.7783435583 124.8893357515 -9.3944774163 1.3885527217 1
-3.0005675554 124.8893357515 -10.2799932106 0.9314166949 1
-1.2227915525 124.8893357515 -10.2037795298 0.6060350832 1
0.5549844503 124.8893357515 -9.7209773748 1.0352267619 1
2.3327604532 124.8893357515 -10.0065366796 0.5786663759 1
4.1105364561 124.8893357515 -10.1982321865 1.0860922055 1
5.888312459 124.8893357515 -10.305781054 0.9287575787 1
7.6660884619 124.8893357515 -10.085277738 0.976444111 1
9.4438644648 124.8893357515 0 -0 0
11.2216404676 124.8893357515 0 -0 0
12.9994164705 124.8893357515 0 -0 0
14.7771924734 124.8893357515 0 -0 0
16.5549684763 124.8893357515 0 -0 0
18.3327444792 124.8893357515 0 -0 0
20.1105204821 124.8893357515 0 -0 0
21.8882964849 124.8893357515 0 -0 0
23.6660724878 124.8893357515 0 -0 0
25.4438484907 124.8893357515 0 -0 0
27.2216244936 124.8893357515 0 -0 0
28.9994004965 124.8893357515 0 -0 0
30.7771764994 124.8893357515 0 -0 0
32.5549525023 124.8893357515 0 -0 0
34.3327285051 124.8893357515 0 -0 0
36.110504508 124.8893357515 -9.7640773969 0.1988179864 1
37.8882805109 124.8893357515 -9.5492588906 0.3108488324 1
39.6660565138 124.8893357515 -10.1516869119 0.9035067135 1
41.4438325167 124.8893357515 -9.2296422774 0.7632594505 1
43.2216085196 124.8893357515 -8.9405876021 0.6593119171 1
44.9993845224 124.8893357515 -9.4425176384 0.6392088835 1
46.7771605253 124.8893357515 -9.7783896572 0.9220933206 1
48.5549365282 124.8893357515 -8.8152955414 -0.0443959296 1
50.3327125311 124.8893357515 -9.0434153569 0.0768179603 1
52.110488534 124.8893357515 0 -0 0
53.8882645369 124.8893357515 0 -0 0
-125.6671117544 123.1115597486 0 -0 0
-123.8893357515 123.1115597486 -10.7949267121 -0.4100637975 1
-122.1115597486 123.1115597486 -10.4704357683 -0.2467307656 1
-120.3337837458 123.1115597486 -10.3619575705 -0.2708962188 1
-118.5560077429 123.1115597486 -10.3763457236 -0.2259719025 1
-116.77823174 123.1115597486 -10.4068432243 -0.3365851259 1
-115.0004557371 123.1115597486 -10.2473277498 -0.4015208315 1
-113.2226797342 123.1115597486 -10.7099180436 -0.1504383942 1
-111.4449037313 123.1115597486 -10.5622375697 -0.3140578144 1
-109.6671277285 123.1115597486 -10.6832781947 -0.2049094677 1
-107.8893517256 123.1115597486 -10.4340687374 0.3361498155 1
-106.1115757227 123.1115597486 -10.4396948376 -0.0006100073 1
-104.3337997198 123.1115597486 -10.430375759 0.010516182 1
-102.5560237169 123.1115597486 -10.5169839068 -0.2290290987 1
-100.778247714 123.1115597486 -10.7820879202 0.0390404666 1
-99.0004717112 123.1115597486 -10.3411672046 -0.1508106991 1
-97.2226957083 123.1115597486 -10.6061459231 -0.1901618971 1
-95.4449197054 123.1115597486 -10.8112637383 -0.0211168486 1
-93.6671437025 123.1115597486 -10.9022042266 -0.3576948148 1
-91.8893676996 123.1115597486 -10.8881912422 -0.235414128 1
-90.1115916967 123.1115597486 -10.2581403438 0.0018357496 1
-88.3338156939 123.1115597486 -10.7485661581 0.1586763565 1
-86.556039691 123.1115597486 -10.9418640081 0.4474546669 1
-84.7782636881 123.1115597486 -11.0261323626 0.2017591953 1
-83.0004876852 123.1115597486 -11.065028919 0.3750470879 1
-81.2227116823 123.1115597486 -10.3943409387 -0.0256919033 1
-79.4449356794 123.1115597486 -11.0580403261 0.6759324679 1
-77.6671596766 123.1115597486 -11.2314563775 0.4256175514 1
-75.8893836737 123.1115597486 -10.8923961399 0.3435257487 1
-74.1116076708 123.1115597486 -11.0120964672 0.3393187032 1
-72.3338316679 123.1115597486 -10.3932039768 0.4108084073 1
-70.556055665 123.1115597486 -10.8698938874 0.6005020594 1
-68.7782796621 123.1115597486 0 -0 0
-67.0005036592 123.1115597486 0 -0 0
-65.2227276564 123.1115597486 0 -0 0
-63.4449516535 123.1115597486 0 -0 0
-61.6671756506 123.1115597486 0 -0 0
-59.8893996477 123.1115597486 0 -0 0
-58.1116236448 123.1115597486 -10.6273429605 0.1045718601 1
-56.3338476419 123.1115597486 -10.3098663845 0.2392946909 1
-54.5560716391 123.1115597486 -11.3503598291 0.5983541464 1
-52.7782956362 123.1115597486 -10.2477043505 0.8220564208 1
-51.0005196333 123.1115597486 -10.3307168919 0.7532630634 1
-49.2227436304 123.1115597486 -10.2112127407 0.7440800194 1
-47.4449676275 123.1115597486 -11.0702562233 0.6576064742 1
-45.6671916246 123.1115597486 -10.7835599566 1.1490833339 1
-43.8894156218 123.1115597486 -10.7262915843 0.9784158951 1
-42.1116396189 123.1115597486 -10.5964287647 0.9096082183 1
-40.333863616 123.1115597486 -10.9321805004 0.9085500132 1
-38.5560876131 123.1115597486 -10.5503159366 0.9805079624 1
-36.7783116102 123.1115597486 -9.7930169446 0.7458756747 1
-35.0005356073 123.1115597486 -10.0601314046 0.5093102653 1
-33.2227596045 123.1115597486 -9.822238585 1.3169355747 1
-31.4449836016 123.1115597486 -10.6223211399 1.3870047924 1
-29.6672075987 123.1115597486 0 -0 0
-27.8894315958 123.1115597486 -9.8190482182 1.5633255381 1
-26.1116555929 123.1115597486 -10.7412933247 1.1695486489 1
-24.33387959 123.1115597486 -10.4846921828 1.0146425957 1
-22.5561035872 123.1115597486 -10.2243321933 1.2607834012 1
-20.7783275843 123.1115597486 0 -0 0
-19.0005515814 123.1115597486 -9.8118097514 1.1496761579 1
-17.2227755785 123.1115597486 -9.8204056992 0.6062169399 1
-15.4449995756 123.1115597486 -9.8393846584 0.2509521306 1
-13.6672235727 123.1115597486 -10.4573635698 0.4053283653 1
-11.8894475698 123.1115597486 -10.6808732481 0.7713957449 1
-10.111671567 123.1115597486 -10.2641015183 0.9434965576 1
-8.3338955641 123.1115597486 -10.3327516815 0.5678881485 1
-6.5561195612 123.1115597486 -9.8211188063 0.9529015527 1
-4.7783435583 123.1115597486 -9.3797928512 1.0575707848 1
-3.0005675554 123.1115597486 -10.6384519665 1.4637368362 1
-1.2227915525 123.1115597486 -9.4640898445 0.011949556 1
0.5549844503 123.1115597486 -9.1458078012 0.4730076718 1
2.3327604532 123.1115597486 -9.9332455924 0.5474027863 1
4.1105364561 123.1115597486 -9.9502112411 0.88769521 1
5.888312459 123.1115597486 -10.0602831904 1.0519833471 1
7.6660884619 123.1115597486 0 -0 0
9.4438644648 123.1115597486 0 -0 0
11.2216404676 123.1115597486 0 -0 0
12.9994164705 123.1115597486 0 -0 0
14.7771924734 123.1115597486 0 -0 0
16.5549684763 123.1115597486 0 -0 0
18.3327444792 123.1115597486 0 -0 0
20.1105204821 123.1115597486 0 -0 0
21.8882964849 123.1115597486 0 -0 0
23.6660724878 123.1115597486 0 -0 0
25.4438484907 123.1115597486 0 -0 0
27.2216244936 123.1115597486 0 -0 0
28.9994004965 123.1115597486 0 -0 0
30.7771764994 123.1115597486 0 -0 0
32.5549525023 123.1115597486 0 -0 0
34.3327285051 123.1115597486 0 -0 0
36.110504508 123.1115597486 -9.7255008795 0.3408737922 1
37.8882805109 123.1115597486 0 -0 0
39.6660565138 123.1115597486 -9.7645370503 0.9652477565 1
41.4438325167 123.1115597486 -9.887089806 0.7209985464 1
43.2216085196 123.1115597486 -9.0237333141 0.6481671126 1
44.9993845224 123.1115597486 -9.005689413 0.5088133814 1
46.7771605253 123.1115597486 -9.3564779716 0.4807272711 1
48.5549365282 123.1115597486 -9.1066756904 0.1217694835 1
50.3327125311 123.1115597486 -8.7989398999 0.1886025122 1
52.110488534 123.1115597486 -9.7603901463 0.0744366408 1
53.8882645369 123.1115597486 0 -0 0
-125.6671117544 121.3337837458 0 -0 0
-123.8893357515 121.3337837458 -10.9295886853 -0.1706989415 1
-122.1115597486 121.3337837458 -10.5769786966 -0.0794813724 1
-120.3337837458 121.3337837458 -10.2721347129 -0.246153693 1
-118.5560077429 121.3337837458 -10.2636833913 -0.3291404595 1
-116.77823174 121.3337837458 -10.6083890602 -0.2869296733 1
-115.0004557371 121.3337837458 -10.4023211515 -0.3985108895 1
-113.2226797342 121.3337837458 -10.7124597406 -0.177351744 1
-111.4449037313 121.3337837458 -10.6967864195 -0.4499247668 1
-109.6671277285 121.3337837458 -11.1948380408 -0.1028563936 1
-107.8893517256 121.3337837458 -10.8318822712 -0.2511640581 1
-106.1115757227 121.3337837458 -10.715833396 0.1794953612 1
-104.3337997198 121.3337837458 -10.5386985912 -0.002692051 1
-102.5560237169 121.3337837458 -10.6462288434 -0.0918290083 1
-100.778247714 121.3337837458 -10.7483313196 -0.1692240412 1
-99.0004717112 121.3337837458 -10.8433700258 -0.1933078736 1
-97.2226957083 121.3337837458 -10.7925876349 -0.0101982909 1
-95.4449197054 121.3337837458 -10.6909569836 0.0668258691 1
-93.6671437025 121.3337837458 -10.8071125385 0.2491521796 1
-91.8893676996 121.3337837458 -10.7697538878 -0.1678751519 1
-90.1115916967 121.3337837458 -10.2456767207 0.085194821 1
-88.3338156939 121.3337837458 -10.3843202086 0.0501709517 1
-86.556039691 121.3337837458 -10.584892324 0.3542753373 1
-84.7782636881 121.3337837458 -10.6207008975 0.4585593771 1
-83.0004876852 121.3337837458 -11.0214885747 -0.2284262511 1
-81.2227116823 121.3337837458 -10.6190899628 0.1251803693 1
-79.4449356794 121.3337837458 -10.7183478861 0.6125733304 1
-77.6671596766 121.3337837458 -11.1081103259 0.3655977027 1
-75.8893836737 121.3337837458 -11.0087772256 0.3192786749 1
-74.1116076708 121.3337837458 -10.7945622829 0.3765448992 1
-72.3338316679 121.3337837458 -10.7709144768 0.4204911991 1
-70.556055665 121.3337837458 -10.9055692903 0.8091803984 1
-68.7782796621 121.3337837458 0 -0 0
-67.0005036592 121.3337837458 0 -0 0
-65.2227276564 121.3337837458 0 -0 0
-63.4449516535 121.3337837458 0 -0 0
-61.6671756506 121.3337837458 0 -0 0
-59.8893996477 121.3337837458 -10.2044052885 1.1406248525 1
-58.1116236448 121.3337837458 -10.7205437692 0.4988084027 1
-56.3338476419 121.3337837458 -11.0088316394 0.9447051167 1
-54.5560716391 121.3337837458 -10.9372302438 0.6972655397 1
-52.7782956362 121.3337837458 -11.0340202151 0.8688780602 1
-51.0005196333 121.3337837458 -10.8067595648 0.7894725807 1
-49.2227436304 121.3337837458 -10.3485989836 0.6029864787 1
-47.4449676275 121.3337837458 -11.0651971722 0.0554992079 1
-45.6671916246 121.3337837458 -11.3175597657 0.6229291349 1
-43.8894156218 121.3337837458 -10.2648862226 0.8310017625 1
-42.1116396189 121.3337837458 -10.2973984656 0.7833939869 1
-40.333863616 121.3337837458 -10.6926710182 0.9577902026 1
-38.5560876131 121.3337837458 -10.355946278 0.3815710156 1
-36.7783116102 121.3337837458 -9.9039938813 0.4961793572 1
-35.0005356073 121.3337837458 -10.8637007383 0.4850946942 1
-33.2227596045 121.3337837458 -10.2438366752 1.2190394282 1
-31.4449836016 121.3337837458 -10.5561654197 1.6269409932 1
-29.6672075987 121.3337837458 -9.906717435 0.1862927898 1
-27.8894315958 121.3337837458 -9.337236967 0.9491512966 1
-26.1116555929 121.3337837458 -9.5754677249 0.8231948147 1
-24.33387959 121.3337837458 -10.2342598471 1.1672833167 1
-22.5561035872 121.3337837458 -9.8482856099 0.9342934664 1
-20.7783275843 121.3337837458 -9.734278684 1.3930003335 1
-19.0005515814 121.3337837458 -10.0370556593 0.9183129937 1
-17.2227755785 121.3337837458 -10.3209009296 1.319889671 1
-15.4449995756 121.3337837458 -9.8791768945 0.6829618712 1
-13.6672235727 121.3337837458 -10.2771837404 0.0829223291 1
-11.8894475698 121.3337837458 -10.2662308161 0.6683732461 1
-10.111671567 121.3337837458 -10.1800493871 0.373834233 1
-8.3338955641 121.3337837458 -10.0172948598 0.9603805857 1
-6.5561195612 121.3337837458 -9.5708411204 1.1581188879 1
-4.7783435583 121.3337837458 -9.8770017747 0.7912811234 1
-3.0005675554 121.3337837458 -10.1189713332 1.2650305412 1
-1.2227915525 121.3337837458 -9.5928328855 1.0428232142 1
0.5549844503 121.3337837458 -9.4520085499 0.7900152867 1
2.3327604532 121.3337837458 -9.782812926 0.7280823634 1
4.1105364561 121.3337837458 -10.2140522817 0.8452209465 1
5.888312459 121.3337837458 -9.895458075 0.5713176495 1
7.6660884619 121.3337837458 -9.8151246971 0.5817794178 1
9.4438644648 121.3337837458 -9.2398978459 0.4440394852 1
11.2216404676 121.3337837458 0 -0 0
12.9994164705 121.3337837458 0 -0 0
14.7771924734 121.3337837458 0 -0 0
16.5549684763 121.3337837458 0 -0 0
18.3327444792 121.3337837458 0 -0 0
20.1105204821 121.3337837458 0 -0 0
21.8882964849 121.3337837458 0 -0 0
23.6660724878 121.3337837458 0 -0 0
25.4438484907 121.3337837458 0 -0 0
27.2216244936 121.3337837458 0 -0 0
28.9994004965 121.3337837458 0 -0 0
30.7771764994 121.3337837458 0 -0 0
32.5549525023 121.3337837458 0 -0 0
34.3327285051 121.3337837458 0 -0 0
36.110504508 121.3337837458 -9.1092961442 0.9371802615 1
37.8882805109 121.3337837458 -9.2725275082 0.5028550708 1
39.6660565138 121.3337837458 -9.5081163332 0.5500346957 1
41.4438325167 121.3337837458 -10.1645128164 0.5511014924 1
43.2216085196 121.3337837458 -9.5155738871 0.7098523099 1
44.9993845224 121.3337837458 -9.3720975949 0.1619125454 1
46.7771605253 121.3337837458 -9.5020133964 0.3281839222 1
48.5549365282 121.3337837458 -9.857836663 0.115066563 1
50.3327125311 121.3337837458 -9.1923273009 0.5327439961 1
52.110488534 121.3337837458 -9.4496401179 0.569801223 1
53.8882645369 121.3337837458 0 -0 0
-125.6671117544 119.5560077429 0 -0 0
-123.8893357515 119.5560077429 -10.6155487702 -0.5384402613 1
-122.1115597486 119.5560077429 -10.1344448984 -0.2776249142 1
-120.3337837458 119.5560077429 -10.3748622317 -0.2541997751 1
-118.5560077429 119.5560077429 -10.0603633792 -0.0233492462 1
-116.77823174 119.5560077429 -10.5769479098 -0.16540362 1
-115.0004557371 119.5560077429 -10.8094559116 -0.2344174964 1
-113.2226797342 119.5560077429 -10.8696611968 -0.074158844 1
-111.4449037313 119.5560077429 -11.0427751085 -0.3795319302 1
-109.6671277285 119.5560077429 -11.298099674 0.0550667614 1
-107.8893517256 119.5560077429 -11.4148988868 -0.1908835958 1
-106.1115757227 119.5560077429 -10.6505740714 0.1673882916 1
-104.3337997198 119.5560077429 -10.2770362504 0.0012901797 1
-102.5560237169 119.5560077429 -10.5034635105 0.1098900927 1
-100.778247714 119.5560077429 -10.8804737908 -0.1805893648 1
-99.0004717112 119.5560077429 -11.0786123208 -0.0567965473 1
-97.2226957083 119.5560077429 -10.8648212329 -0.2683444981 1
-95.4449197054 119.5560077429 -10.3527430237 0.0561808123 1
-93.6671437025 119.5560077429 -10.6939461626 0.5500318318 1
-91.8893676996 119.5560077429 -11.1773125028 0.1967946524 1
-90.1115916967 119.5560077429 -10.8237423969 0.076603169 1
-88.3338156939 119.5560077429 -10.9836681227 0.0092460495 1
-86.556039691 119.5560077429 -10.5879824548 0.2738560429 1
-84.7782636881 119.5560077429 -10.7867596309 0.1166846574 1
-83.0004876852 119.5560077429 -11.1844135031 -0.157354674 1
-81.2227116823 119.5560077429 -11.0618356884 0.2222646047 1
-79.4449356794 119.5560077429 -10.8114233999 0.6106015463 1
-77.6671596766 119.5560077429 -11.069795138 -0.0412299059 1
-75.8893836737 119.5560077429 -11.193550009 0.2251929261 1
-74.1116076708 119.5560077429 -10.6150511704 0.4634666423 1
-72.3338316679 119.5560077429 -10.7877977889 0.2308920552 1
-70.556055665 119.5560077429 -10.9070620898 0.8022426394 1
-68.7782796621 119.5560077429 0 -0 0
-67.0005036592 119.5560077429 0 -0 0
-65.2227276564 119.5560077429 0 -0 0
-63.4449516535 119.5560077429 0 -0 0
-61.6671756506 119.5560077429 0 -0 0
-59.8893996477 119.5560077429 0 -0 0
-58.1116236448 119.5560077429 -10.5440869889 0.59021642 1
-56.3338476419 119.5560077429 -10.8146509971 1.0542128808 1
-54.5560716391 119.5560077429 -10.4655857808 0.786083174 1
-52.7782956362 119.5560077429 -11.2655960226 0.9144682295 1
-51.0005196333 119.5560077429 -10.7672286581 0.2918612815 1
-49.2227436304 119.5560077429 -10.9599215126 0.3653557045 1
-47.4449676275 119.5560077429 -11.1266074367 0.648354697 1
-45.6671916246 119.5560077429 -10.6456997409 0.6590956939 1
-43.8894156218 119.5560077429 -10.255988135 0.7228786862 1
-42.1116396189 119.5560077429 -10.3558045157 0.9330018547 1
-40.333863616 119.5560077429 -10.4174997366 0.8948849907 1
-38.5560876131 119.5560077429 -10.252704692 0.7346678647 1
-36.7783116102 119.5560077429 -10.3599113254 0.6945205069 1
-35.0005356073 119.5560077429 0 -0 0
-33.2227596045 119.5560077429 -10.2324312572 1.0728581976 1
-31.4449836016 119.5560077429 -10.2269540791 1.6247959441 1
-29.6672075987 119.5560077429 -11.1690294343 0.9249199741 1
-27.8894315958 119.5560077429 -9.7469742817 1.0426857478 1
-26.1116555929 119.5560077429 -10.5573109733 1.6582632925 1
-24.33387959 119.5560077429 -9.7315465386 0.954102952 1
-22.5561035872 119.5560077429 -9.793674206 0.9657002502 1
-20.7783275843 119.5560077429 -9.6125421352 0.9039792544 1
-19.0005515814 119.5560077429 -10.0727267664 1.2013492167 1
-17.2227755785 119.5560077429 -10.2180316485 1.2564532086 1
-15.4449995756 119.5560077429 -10.2824088968 1.0576123111 1
-13.6672235727 119.5560077429 0 -0 0
-11.8894475698 119.5560077429 -10.4595802161 0.5753027441 1
-10.111671567 119.5560077429 -10.3713682933 1.0068814701 1
-8.3338955641 119.5560077429 -9.8212476811 1.152906619 1
-6.5561195612 119.5560077429 -9.5280990837 1.6991724433 1
-4.7783435583 119.5560077429 -10.422624657 0.9995470632 1
-3.0005675554 119.5560077429 -10.0662014067 1.1986227992 1
-1.2227915525 119.5560077429 -9.7094058515 1.9921277286 1
0.5549844503 119.5560077429 -9.5916916278 0.7291162256 1
2.3327604532 119.5560077429 -10.1471591113 0.8036702856 1
4.1105364561 119.5560077429 -9.8379813553 1.0025484136 1
5.888312459 119.5560077429 -9.6604305713 1.212872054 1
7.6660884619 119.5560077429 -9.5893203318 1.2749882658 1
9.4438644648 119.5560077429 -9.6151282224 0.85550229 1
11.2216404676 119.5560077429 0 -0 0
12.9994164705 119.5560077429 0 -0 0
14.7771924734 119.5560077429 0 -0 0
16.5549684763 119.5560077429 0 -0 0
18.3327444792 119.5560077429 0 -0 0
20.1105204821 119.5560077429 0 -0 0
21.8882964849 119.5560077429 0 -0 0
23.6660724878 119.5560077429 0 -0 0
25.4438484907 119.5560077429 0 -0 0
27.2216244936 119.5560077429 0 -0 0
28.9994004965 119.5560077429 0 -0 0
30.7771764994 119.5560077429 0 -0 0
32.5549525023 119.5560077429 0 -0 0
34.3327285051 119.5560077429 0 -0 0
36.110504508 119.5560077429 -8.9622142221 0.9047682544 1
37.8882805109 119.5560077429 -9.6710956753 0.8389461767 1
39.6660565138 119.5560077429 -9.6510928776 0.6066637058 1
41.4438325167 119.5560077429 -9.6429408318 0.4143195291 1
43.2216085196 119.5560077429 -9.567394436 0.462213693 1
44.9993845224 119.5560077429 -9.1170644296 0.7169533103 1
46.7771605253 119.5560077429 -9.7642248869 0.6957118827 1
48.5549365282 119.5560077429 0 -0 0
50.3327125311 119.5560077429 -9.5916415098 0.6776235914 1
52.110488534 119.5560077429 0 -0 0
53.8882645369 119.5560077429 0 -0 0
-125.6671117544 117.77823174 0 -0 0
-123.8893357515 117.77823174 -10.6245012716 -0.8313497244 1
-122.1115597486 117.77823174 -10.3980496685 -0.3233224791 1
-120.3337837458 117.77823174 -10.6496898472 -0.3216313556 1
-118.5560077429 117.77823174 -10.3183950311 0.341989275 1
-116.77823174 117.77823174 -10.8268561547 -0.0568738722 1
-115.0004557371 117.77823174 -11.2299471107 -0.4588729724 1
-113.2226797342 117.77823174 -10.8775784041 0.1087774737 1
-111.4449037313 117.77823174 -10.9296996608 -0.3905994099 1
-109.6671277285 117.77823174 -11.1144745921 -0.2411648071 1
-107.8893517256 117.77823174 -11.1828218996 0.1745494335 1
-106.1115757227 117.77823174 -10.9430303249 -0.0396619294 1
-104.3337997198 117.77823174 -10.0723959878 -0.4389074051 1
-102.5560237169 117.77823174 -10.709684637 -0.1308809304 1
-100.778247714 117.77823174 -11.0183905682 -0.004271483 1
-99.0004717112 117.77823174 -11.0356060909 -0.2356475346 1
-97.2226957083 117.77823174 -10.6605532752 0.1103168114 1
-95.4449197054 117.77823174 -10.3236287791 0.1296122298 1
-93.6671437025 117.77823174 -10.4976627134 0.1542001058 1
-91.8893676996 117.77823174 -11.0789481112 0.0933482987 1
-90.1115916967 117.77823174 -10.9318533016 -0.0885326778 1
-88.3338156939 117.77823174 -11.3853887102 -0.0339728239 1
-86.556039691 117.77823174 -10.7985430816 0.2727863822 1
-84.7782636881 117.77823174 -10.8220720365 0.2280238754 1
-83.0004876852 117.77823174 -11.2838733303 -0.0489724163 1
-81.2227116823 117.77823174 -11.4522646972 0.1066854065 1
-79.4449356794 117.77823174 -10.7919769116 0.4479515508 1
-77.6671596766 117.77823174 -10.8579450474 0.3922604626 1
-75.8893836737 117.77823174 -10.8961120294 0.4034467935 1
-74.1116076708 117.77823174 -10.9979016262 0.4499290626 1
-72.3338316679 117.77823174 -10.4247854575 0.4243302356 1
-70.556055665 117.77823174 -10.5033403635 0.5081460964 1
-68.7782796621 117.77823174 0 -0 0
-67.0005036592 117.77823174 0 -0 0
-65.2227276564 117.77823174 0 -0 0
-63.4449516535 117.77823174 0 -0 0
-61.6671756506 117.77823174 0 -0 0
-59.8893996477 117.77823174 0 -0 0
-58.1116236448 117.77823174 -10.5924701611 0.4791206322 1
-56.3338476419 117.77823174 -11.09694977 0.5369324264 1
-54.5560716391 117.77823174 -10.3772235041 0.9820759389 1
-52.7782956362 117.77823174 -10.5285289391 0.8368755885 1
-51.0005196333 117.77823174 -10.8420784141 0.1199638046 1
-49.2227436304 117.77823174 -11.1312454968 0.361022648 1
-47.4449676275 117.77823174 -10.5816461115 0.7384496235 1
-45.6671916246 117.77823174 -10.5494539075 0.5399065699 1
-43.8894156218 117.77823174 -10.3508571561 0.730538144 1
-42.1116396189 117.77823174 -10.2106943777 1.2621236989 1
-40.333863616 117.77823174 -10.5402629878 0.9564713841 1
-38.5560876131 117.77823174 -10.3778707419 0.6764050088 1
-36.7783116102 117.77823174 -10.7030547456 1.0976379538 1
-35.0005356073 117.77823174 -10.7218289371 0.919912473 1
-33.2227596045 117.77823174 -10.1353126552 1.1101044408 1
-31.4449836016 117.77823174 -10.6053941535 1.5329411609 1
-29.6672075987 117.77823174 -11.51080177 0.4652580017 1
-27.8894315958 117.77823174 -10.1820942002 0.8922358981 1
-26.1116555929 117.77823174 -10.1218065783 1.5098253213 1
-24.33387959 117.77823174 -9.7185845997 1.2216985445 1
-22.5561035872 117.77823174 -10.1039330783 1.0188367538 1
-20.7783275843 117.77823174 0 -0 0
-19.0005515814 117.77823174 -9.7694829779 1.4481000296 1
-17.2227755785 117.77823174 -10.1405149005 1.2016041024 1
-15.4449995756 117.77823174 -9.9290528662 1.3092904364 1
-13.6672235727 117.77823174 0 -0 0
-11.8894475698 117.77823174 -9.2095206284 0.8296199384 1
-10.111671567 117.77823174 -9.763063582 0.772578529 1
-8.3338955641 117.77823174 -10.2456409221 0.7413736491 1
-6.5561195612 117.77823174 0 -0 0
-4.7783435583 117.77823174 -10.169904078 1.3349021509 1
-3.0005675554 117.77823174 -10.0995985899 1.2311608172 1
-1.2227915525 117.77823174 -9.5943450163 1.1246171729 1
0.5549844503 117.77823174 0 -0 0
2.3327604532 117.77823174 -10.1404919894 1.0404733974 1
4.1105364561 117.77823174 -9.6364541346 0.9358958095 1
5.888312459 117.77823174 -9.590427223 1.0632641862 1
7.6660884619 117.77823174 -9.206051033 1.0792947768 1
9.4438644648 117.77823174 -9.6090839952 0.6201282564 1