TITLE = "B00052"
VARIABLES = "x", "y", "Vx", "Vy", "isValid"
ZONE T="Frame 0", I=102, J=78, F=POINT
-125.6671117544 126.6671117544 0 -0 0
-123.8893357515 126.6671117544 0 -0 0
-122.1115597486 126.6671117544 0 -0 0
-120.3337837458 126.6671117544 0 -0 0
-118.5560077429 126.6671117544 0 -0 0
-116.77823174 126.6671117544 0 -0 0
-115.0004557371 126.6671117544 0 -0 0
-113.2226797342 126.6671117544 0 -0 0
-111.4449037313 126.6671117544 0 -0 0
-109.6671277285 126.6671117544 0 -0 0
-107.8893517256 126.6671117544 0 -0 0
-106.1115757227 126.6671117544 0 -0 0
-104.3337997198 126.6671117544 0 -0 0
-102.5560237169 126.6671117544 0 -0 0
-100.778247714 126.6671117544 0 -0 0
-99.0004717112 126.6671117544 0 -0 0
-97.2226957083 126.6671117544 0 -0 0
-95.4449197054 126.6671117544 0 -0 0
-93.6671437025 126.6671117544 0 -0 0
-91.8893676996 126.6671117544 0 -0 0
-90.1115916967 126.6671117544 0 -0 0
-88.3338156939 126.6671117544 0 -0 0
-86.556039691 126.6671117544 0 -0 0
-84.7782636881 126.6671117544 0 -0 0
-83.0004876852 126.6671117544 0 -0 0
-81.2227116823 126.6671117544 0 -0 0
-79.4449356794 126.6671117544 0 -0 0
-77.6671596766 126.6671117544 0 -0 0
-75.8893836737 126.6671117544 0 -0 0
-74.1116076708 126.6671117544 0 -0 0
-72.3338316679 126.6671117544 0 -0 0
-70.556055665 126.6671117544 0 -0 0
-68.7782796621 126.6671117544 0 -0 0
-67.0005036592 126.6671117544 0 -0 0
-65.2227276564 126.6671117544 0 -0 0
-63.4449516535 126.6671117544 0 -0 0
-61.6671756506 126.6671117544 0 -0 0
-59.8893996477 126.6671117544 0 -0 0
-58.1116236448 126.6671117544 0 -0 0
-56.3338476419 126.6671117544 0 -0 0
-54.5560716391 126.6671117544 0 -0 0
-52.7782956362 126.6671117544 0 -0 0
-51.0005196333 126.6671117544 0 -0 0
-49.2227436304 126.6671117544 0 -0 0
-47.4449676275 126.6671117544 0 -0 0
-45.6671916246 126.6671117544 0 -0 0
-43.8894156218 126.6671117544 0 -0 0
-42.1116396189 126.6671117544 0 -0 0
-40.333863616 126.6671117544 0 -0 0
-38.5560876131 126.6671117544 0 -0 0
-36.7783116102 126.6671117544 0 -0 0
-35.0005356073 126.6671117544 0 -0 0
-33.2227596045 126.6671117544 0 -0 0
-31.4449836016 126.6671117544 0 -0 0
-29.6672075987 126.6671117544 0 -0 0
-27.8894315958 126.6671117544 0 -0 0
-26.1116555929 126.6671117544 0 -0 0
-24.33387959 126.6671117544 0 -0 0
-22.5561035872 126.6671117544 0 -0 0
-20.7783275843 126.6671117544 0 -0 0
-19.0005515814 126.6671117544 0 -0 0
-17.2227755785 126.6671117544 0 -0 0
-15.4449995756 126.6671117544 0 -0 0
-13.6672235727 126.6671117544 0 -0 0
-11.8894475698 126.6671117544 0 -0 0
-10.111671567 126.6671117544 0 -0 0
-8.3338955641 126.6671117544 0 -0 0
-6.5561195612 126.6671117544 0 -0 0
-4.7783435583 126.6671117544 0 -0 0
-3.0005675554 126.6671117544 0 -0 0
-1.2227915525 126.6671117544 0 -0 0
0.5549844503 126.6671117544 0 -0 0
2.3327604532 126.6671117544 0 -0 0
4.1105364561 126.6671117544 0 -0 0
5.888312459 126.6671117544 0 -0 0
7.6660884619 126.6671117544 0 -0 0
9.4438644648 126.6671117544 0 -0 0
11.2216404676 126.6671117544 0 -0 0
12.9994164705 126.6671117544 0 -0 0
14.7771924734 126.6671117544 0 -0 0
16.5549684763 126.6671117544 0 -0 0
18.3327444792 126.6671117544 0 -0 0
20.1105204821 126.6671117544 0 -0 0
21.8882964849 126.6671117544 0 -0 0
23.6660724878 126.6671117544 0 -0 0
25.4438484907 126.6671117544 0 -0 0
27.2216244936 126.6671117544 0 -0 0
28.9994004965 126.6671117544 0 -0 0
30.7771764994 126.6671117544 0 -0 0
32.5549525023 126.6671117544 0 -0 0
34.3327285051 126.6671117544 0 -0 0
36.110504508 126.6671117544 0 -0 0
37.8882805109 126.6671117544 0 -0 0
39.6660565138 126.6671117544 0 -0 0
41.4438325167 126.6671117544 0 -0 0
43.2216085196 126.6671117544 0 -0 0
44.9993845224 126.6671117544 0 -0 0
46.7771605253 126.6671117544 0 -0 0
48.5549365282 126.6671117544 0 -0 0
50.3327125311 126.6671117544 0 -0 0
52.110488534 126.6671117544 0 -0 0
53.8882645369 126.6671117544 0 -0 0
-125.6671117544 124.8893357515 0 -0 0
-123.8893357515 124.8893357515 -9.9538498058 -0.040462385 1
-122.1115597486 124.8893357515 -10.2529065958 -0.3426150336 1
-120.3337837458 124.8893357515 -10.5438542983 -0.3181775115 1
-118.5560077429 124.8893357515 -9.9366335671 0.106031009 1
-116.77823174 124.8893357515 -10.0359659515 0.0306550143 1
-115.0004557371 124.8893357515 -10.202218713 -0.2612606811 1
-113.2226797342 124.8893357515 -10.1048667045 -0.3770374873 1
-111.4449037313 124.8893357515 -10.4735130117 -0.0646865477 1
-109.6671277285 124.8893357515 -10.9126645629 -0.0835982057 1
-107.8893517256 124.8893357515 -10.5570174251 0.0067430149 1
-106.1115757227 124.8893357515 -10.057825978 0.0883637086 1
-104.3337997198 124.8893357515 -10.6524907258 -0.0999108889 1
-102.5560237169 124.8893357515 -10.1216619522 0.0718834882 1
-100.778247714 124.8893357515 -10.8150383375 0.0293562429 1
-99.0004717112 124.8893357515 -10.9980770391 -0.4566162318 1
-97.2226957083 124.8893357515 -10.4033607413 -0.4151214166 1
-95.4449197054 124.8893357515 -10.5930801683 0.0591592516 1
-93.6671437025 124.8893357515 -10.6233678895 0.0990732028 1
-91.8893676996 124.8893357515 -10.9375366794 0.3089171426 1
-90.1115916967 124.8893357515 -10.6530026451 0.3560266024 1
-88.3338156939 124.8893357515 -10.7104242351 0.2486152013 1
-86.556039691 124.8893357515 -10.4668831202 0.0219058487 1
-84.7782636881 124.8893357515 -10.4325336956 -0.09163856 1
-83.0004876852 124.8893357515 -11.0650317829 0.3396523456 1
-81.2227116823 124.8893357515 -11.027383164 0.3030991623 1
-79.4449356794 124.8893357515 -10.5772235587 0.0784589658 1
-77.6671596766 124.8893357515 -10.5488632315 0.4583617691 1
-75.8893836737 124.8893357515 -10.6892135943 0.5108181002 1
-74.1116076708 124.8893357515 -10.8431108443 0.4279115225 1
-72.3338316679 124.8893357515 -10.7681350774 0.0247396619 1
-70.556055665 124.8893357515 -10.9971505726 0.1934081096 1
-68.7782796621 124.8893357515 0 -0 0
-67.0005036592 124.8893357515 0 -0 0
-65.2227276564 124.8893357515 0 -0 0
-63.4449516535 124.8893357515 0 -0 0
-61.6671756506 124.8893357515 0 -0 0
-59.8893996477 124.8893357515 0 -0 0
-58.1116236448 124.8893357515 -10.2964591116 0.0637600813 1
-56.3338476419 124.8893357515 -9.9754621063 0.1542974778 1
-54.5560716391 124.8893357515 -10.8832682257 0.2428330195 1
-52.7782956362 124.8893357515 -10.3479932721 -0.1252261914 1
-51.0005196333 124.8893357515 -10.5006397208 0.3093982752 1
-49.2227436304 124.8893357515 -9.9696383982 0.4779793744 1
-47.4449676275 124.8893357515 -10.9174042909 0.3284917897 1
-45.6671916246 124.8893357515 -10.2673878252 0.4769483762 1
-43.8894156218 124.8893357515 -10.6438439441 0.5762879202 1
-42.1116396189 124.8893357515 -10.5325126018 0.5711286332 1
-40.333863616 124.8893357515 -10.2048420308 0.5569209047 1
-38.5560876131 124.8893357515 -9.9909371035 0.651834316 1
-36.7783116102 124.8893357515 -10.1262670776 0.7323380951 1
-35.0005356073 124.8893357515 -10.3069953408 0.6671188649 1
-33.2227596045 124.8893357515 -10.5367604577 0.6897077499 1
-31.4449836016 124.8893357515 0 -0 0
-29.6672075987 124.8893357515 0 -0 0
-27.8894315958 124.8893357515 -10.0641565935 0.9692056442 1
-26.1116555929 124.8893357515 -10.0936588945 0.8435441424 1
-24.33387959 124.8893357515 -10.1742013359 1.2101914586 1
-22.5561035872 124.8893357515 -10.8543723521 1.0133710312 1
-20.7783275843 124.8893357515 -9.1091214473 0.8832404384 1
-19.0005515814 124.8893357515 -10.4632373959 0.7352821678 1
-17.2227755785 124.8893357515 -10.7046835796 0.8390993945 1
-15.4449995756 124.8893357515 -10.1412981728 0.7800504024 1
-13.6672235727 124.8893357515 -10.1905340663 0.8209294825 1
-11.8894475698 124.8893357515 -9.5112895166 1.0580547812 1
-10.111671567 124.8893357515 -9.702973568 0.8868245892 1
-8.3338955641 124.8893357515 -9.7912456324 1.0309409595 1
-6.5561195612 124.8893357515 -10.2480122181 1.1561513996 1
-4.7783435583 124.8893357515 -9.8744786929 1.2393687087 1
-3.0005675554 124.8893357515 -10.0819857033 1.0086699656 1
-1.2227915525 124.8893357515 -9.4466201522 0.1913833436 1
0.5549844503 124.8893357515 -9.3488514485 0.3973252415 1
2.3327604532 124.8893357515 -9.874031927 0.6292583185 1
4.1105364561 124.8893357515 -10.2018063137 0.5389156661 1
5.888312459 124.8893357515 -10.2748353555 0.5032130563 1
7.6660884619 124.8893357515 -10.072045162 1.1299869554 1
9.4438644648 124.8893357515 -9.7841890222 0.5654996692 1
11.2216404676 124.8893357515 0 -0 0
12.9994164705 124.8893357515 0 -0 0
14.7771924734 124.8893357515 0 -0 0
16.5549684763 124.8893357515 0 -0 0
18.3327444792 124.8893357515 0 -0 0
20.1105204821 124.8893357515 0 -0 0
21.8882964849 124.8893357515 0 -0 0
23.6660724878 124.8893357515 0 -0 0
25.4438484907 124.8893357515 0 -0 0
27.2216244936 124.8893357515 0 -0 0
28.9994004965 124.8893357515 0 -0 0
30.7771764994 124.8893357515 0 -0 0
32.5549525023 124.8893357515 0 -0 0
34.3327285051 124.8893357515 0 -0 0
36.110504508 124.8893357515 0 -0 0
37.8882805109 124.8893357515 -9.3153096392 0.3693021366 1
39.6660565138 124.8893357515 -9.5009022094 0.631247286 1
41.4438325167 124.8893357515 -9.6723357371 0.4858450318 1
43.2216085196 124.8893357515 -9.3607036324 0.5443284068 1
44.9993845224 124.8893357515 0 -0 0
46.7771605253 124.8893357515 -9.3728822991 0.3348152456 1
48.5549365282 124.8893357515 -9.6974591594 0.4153777342 1
50.3327125311 124.8893357515 -9.7025497132 0.1331476946 1
52.110488534 124.8893357515 0 -0 0
53.8882645369 124.8893357515 0 -0 0
-125.6671117544 123.1115597486 0 -0 0
-123.8893357515 123.1115597486 -10.1296421649 0.0481805523 1
-122.1115597486 123.1115597486 -10.0237500543 -0.23981019 1
-120.3337837458 123.1115597486 -10.6720438938 -0.4159963332 1
-118.5560077429 123.1115597486 -10.2317840194 0.009626946 1
-116.77823174 123.1115597486 -10.2107717026 0.1475802379 1
-115.0004557371 123.1115597486 -10.0719764288 -0.2064860358 1
-113.2226797342 123.1115597486 -10.0865722135 -0.3078274348 1
-111.4449037313 123.1115597486 -10.1022004285 0.1431569691 1
-109.6671277285 123.1115597486 -10.7237398637 -0.1799120563 1
-107.8893517256 123.1115597486 -10.6914123412 -0.3328019351 1
-106.1115757227 123.1115597486 -10.1679995952 -0.183868512 1
-104.3337997198 123.1115597486 -10.7280292459 -0.2873850308 1
-102.5560237169 123.1115597486 -10.1911913277 -0.2386947072 1
-100.778247714 123.1115597486 -10.8752736935 0.0775926409 1
-99.0004717112 123.1115597486 -10.8209171753 -0.1583198029 1
-97.2226957083 123.1115597486 -10.3282382003 -0.0145943528 1
-95.4449197054 123.1115597486 -10.701884849 -0.2861621524 1
-93.6671437025 123.1115597486 -10.4762165182 0.0289710505 1
-91.8893676996 123.1115597486 -10.8502977612 0.0917932097 1
-90.1115916967 123.1115597486 -10.5705936672 -0.1520622164 1
-88.3338156939 123.1115597486 -10.5502443395 -0.1646518504 1
-86.556039691 123.1115597486 -10.7013485867 -0.1998675999 1
-84.7782636881 123.1115597486 -10.5136238549 -0.2393934948 1
-83.0004876852 123.1115597486 -10.7560559307 -0.3598670708 1
-81.2227116823 123.1115597486 -10.9544378908 0.2213037716 1
-79.4449356794 123.1115597486 -10.7137713995 -0.1335915966 1
-77.6671596766 123.1115597486 -10.9859728334 0.3103261736 1
-75.8893836737 123.1115597486 -10.7161706183 0.2338089211 1
-74.1116076708 123.1115597486 -10.362487389 0.0759086772 1
-72.3338316679 123.1115597486 -10.8960755149 -0.1488833052 1
-70.556055665 123.1115597486 -11.0210267734 0.5235008105 1
-68.7782796621 123.1115597486 0 -0 0
-67.0005036592 123.1115597486 0 -0 0
-65.2227276564 123.1115597486 0 -0 0
-63.4449516535 123.1115597486 0 -0 0
-61.6671756506 123.1115597486 0 -0 0
-59.8893996477 123.1115597486 -9.3505325484 0.6281442677 1
-58.1116236448 123.1115597486 -9.9423627671 0.1643625981 1
-56.3338476419 123.1115597486 -10.0565787565 -0.2604416102 1
-54.5560716391 123.1115597486 -10.8143488574 0.225812957 1
-52.7782956362 123.1115597486 -10.0019215305 -0.5692857238 1
-51.0005196333 123.1115597486 -10.589139464 0.6369063207 1
-49.2227436304 123.1115597486 -10.4002620189 0.4297787749 1
-47.4449676275 123.1115597486 -10.6866590097 0.8227752557 1
-45.6671916246 123.1115597486 -10.5957894026 0.7707800099 1
-43.8894156218 123.1115597486 -10.3899506046 0.9794096629 1
-42.1116396189 123.1115597486 -10.3227925249 0.7741937596 1
-40.333863616 123.1115597486 -10.1591272825 0.7018305708 1
-38.5560876131 123.1115597486 -10.9368636667 0.9342848748 1
-36.7783116102 123.1115597486 -10.300720571 1.0646316908 1
-35.0005356073 123.1115597486 -9.7604101934 -0.0288292882 1
-33.2227596045 123.1115597486 -10.3649861278 0.3147823771 1
-31.4449836016 123.1115597486 0 -0 0
-29.6672075987 123.1115597486 -9.9293979642 0.351444388 1
-27.8894315958 123.1115597486 -10.3207076174 0.8234568601 1
-26.1116555929 123.1115597486 -9.9874345733 0.7706010171 1
-24.33387959 123.1115597486 -10.2929565815 0.52849972 1
-22.5561035872 123.1115597486 -10.5353628823 0.7917980545 1
-20.7783275843 123.1115597486 -9.7751276933 0.9463131875 1
-19.0005515814 123.1115597486 -10.1159112731 0.5971684984 1
-17.2227755785 123.1115597486 -10.7788030452 0.343371099 1
-15.4449995756 123.1115597486 -10.4293075303 0.5568120771 1
-13.6672235727 123.1115597486 -10.2790524247 0.3125242045 1
-11.8894475698 123.1115597486 -10.3255848118 1.0575278265 1
-10.111671567 123.1115597486 -10.0208603953 0.8120113477 1
-8.3338955641 123.1115597486 -9.8034873045 1.0917684236 1
-6.5561195612 123.1115597486 -10.2628399774 0.6456168239 1
-4.7783435583 123.1115597486 -10.4495165277 1.2721301096 1
-3.0005675554 123.1115597486 -10.1572084803 1.0457944938 1
-1.2227915525 123.1115597486 -8.9361271028 0.2476242974 1
0.5549844503 123.1115597486 -9.4802292628 0.5210622132 1
2.3327604532 123.1115597486 -9.9516131124 0.789317931 1
4.1105364561 123.1115597486 -10.4682248499 0.8536737001 1
5.888312459 123.1115597486 -9.740103824 0.7385684747 1
7.6660884619 123.1115597486 -9.5138168942 0.7735064274 1
9.4438644648 123.1115597486 -9.8729364913 -0.0711460381 1
11.2216404676 123.1115597486 0 -0 0
12.9994164705 123.1115597486 0 -0 0
14.7771924734 123.1115597486 0 -0 0
16.5549684763 123.1115597486 0 -0 0
18.3327444792 123.1115597486 0 -0 0
20.1105204821 123.1115597486 0 -0 0
21.8882964849 123.1115597486 0 -0 0
23.6660724878 123.1115597486 0 -0 0
25.4438484907 123.1115597486 0 -0 0
27.2216244936 123.1115597486 0 -0 0
28.9994004965 123.1115597486 0 -0 0
30.7771764994 123.1115597486 0 -0 0
32.5549525023 123.1115597486 0 -0 0
34.3327285051 123.1115597486 0 -0 0
36.110504508 123.1115597486 -8.6762854763 0.2676743493 1
37.8882805109 123.1115597486 -9.565418356 0.1623707668 1
39.6660565138 123.1115597486 -9.6746955775 0.4556181682 1
41.4438325167 123.1115597486 -9.868871208 0.6438827421 1
43.2216085196 123.1115597486 -9.5642441636 0.7309147447 1
44.9993845224 123.1115597486 -9.0711835761 0.1690264332 1
46.7771605253 123.1115597486 -9.4093381104 -0.2475154698 1
48.5549365282 123.1115597486 -9.3192517755 0.5896794418 1
50.3327125311 123.1115597486 -9.6624610651 0.4356253941 1
52.110488534 123.1115597486 -9.5026234037 -0.3428899665 1
53.8882645369 123.1115597486 0 -0 0
-125.6671117544 121.3337837458 0 -0 0
-123.8893357515 121.3337837458 -9.9884039981 0.1393050451 1
-122.1115597486 121.3337837458 -9.9420520357 -0.4224372083 1
-120.3337837458 121.3337837458 -10.1584628615 -0.506009639 1
-118.5560077429 121.3337837458 -10.2951245417 -0.2475455406 1
-116.77823174 121.3337837458 -10.2873992146 -0.2694857559 1
-115.0004557371 121.3337837458 -9.8653214238 -0.3470812607 1
-113.2226797342 121.3337837458 -9.760224041 -0.1794853376 1
-111.4449037313 121.3337837458 -10.3309431388 -0.2586660022 1
-109.6671277285 121.3337837458 -10.6726266941 -0.3809395292 1
-107.8893517256 121.3337837458 -10.6611281999 -0.4080662384 1
-106.1115757227 121.3337837458 -10.0882518815 -0.1246548466 1
-104.3337997198 121.3337837458 -10.1392562235 0.3828969939 1
-102.5560237169 121.3337837458 -10.1874539591 -0.5307564606 1
-100.778247714 121.3337837458 -10.5720084259 -0.192756576 1
-99.0004717112 121.3337837458 -10.7971490861 -0.0446608389 1
-97.2226957083 121.3337837458 -10.4673914596 -0.2054865403 1
-95.4449197054 121.3337837458 -10.690280391 -0.2574373959 1
-93.6671437025 121.3337837458 -10.4475991574 -0.1456857787 1
-91.8893676996 121.3337837458 -11.0092454707 -0.3244766244 1
-90.1115916967 121.3337837458 -10.7990156225 -0.4066013617 1
-88.3338156939 121.3337837458 -10.5844684692 -0.5173277085 1
-86.556039691 121.3337837458 -10.4009880135 -0.3913740905 1
-84.7782636881 121.3337837458 -10.4180553301 -0.3089185746 1
-83.0004876852 121.3337837458 -10.7644793295 -0.5276061882 1
-81.2227116823 121.3337837458 -11.0063407763 -0.3858969124 1
-79.4449356794 121.3337837458 -10.7962741695 0.0606470394 1
-77.6671596766 121.3337837458 -10.7464511797 -0.1246791896 1
-75.8893836737 121.3337837458 -10.5953576721 -0.0931349394 1
-74.1116076708 121.3337837458 -10.5102867141 0.4905174585 1
-72.3338316679 121.3337837458 -10.9287696145 -0.1782309564 1
-70.556055665 121.3337837458 -11.2368247281 -0.4084557266 1
-68.7782796621 121.3337837458 0 -0 0
-67.0005036592 121.3337837458 0 -0 0
-65.2227276564 121.3337837458 0 -0 0
-63.4449516535 121.3337837458 0 -0 0
-61.6671756506 121.3337837458 0 -0 0
-59.8893996477 121.3337837458 -8.8840215975 0.1551136848 1
-58.1116236448 121.3337837458 -10.3829970942 0.5886598991 1
-56.3338476419 121.3337837458 -10.3819632321 -0.0402547534 1
-54.5560716391 121.3337837458 -10.5882115656 -0.0626474623 1
-52.7782956362 121.3337837458 -11.0865252323 0.4785621748 1
-51.0005196333 121.3337837458 -10.7593701604 0.875350438 1
-49.2227436304 121.3337837458 -10.8107561149 0.656748741 1
-47.4449676275 121.3337837458 -10.7802299754 0.90621022 1
-45.6671916246 121.3337837458 -10.9195042338 1.0128712835 1
-43.8894156218 121.3337837458 -10.8102678227 0.8018746303 1
-42.1116396189 121.3337837458 -10.3857779256 0.8880503316 1
-40.333863616 121.3337837458 -10.7864689467 0.9169268739 1
-38.5560876131 121.3337837458 -10.5014287209 0.9361836299 1
-36.7783116102 121.3337837458 -10.5587135604 0.691383122 1
-35.0005356073 121.3337837458 -10.0846949376 0.3231348947 1
-33.2227596045 121.3337837458 -10.1360071471 0.5221261461 1
-31.4449836016 121.3337837458 -10.768490915 1.5025582156 1
-29.6672075987 121.3337837458 -10.8165769591 1.1890516989 1
-27.8894315958 121.3337837458 -10.041753861 0.6940207592 1
-26.1116555929 121.3337837458 -9.6554245021 0.4257893845 1
-24.33387959 121.3337837458 -9.8730825494 0.7471228962 1
-22.5561035872 121.3337837458 -10.2156374415 0.7968556736 1
-20.7783275843 121.3337837458 -10.6826101937 0.8772978791 1
-19.0005515814 121.3337837458 -9.8681724203 0.600238582 1
-17.2227755785 121.3337837458 -10.3681177849 0.7901140907 1
-15.4449995756 121.3337837458 -10.8649229008 0.6155188351 1
-13.6672235727 121.3337837458 -11.0252202156 0.6888285375 1
-11.8894475698 121.3337837458 -10.8220484095 1.310854117 1
-10.111671567 121.3337837458 -10.1598303661 0.4489023602 1
-8.3338955641 121.3337837458 -9.3618305708 0.3206261323 1
-6.5561195612 121.3337837458 -9.3828915737 0.6368118126 1
-4.7783435583 121.3337837458 -10.7015812773 0.7851968019 1
-3.0005675554 121.3337837458 -9.3647116381 0.9282248962 1
-1.2227915525 121.3337837458 -9.5282465737 0.5396402287 1
0.5549844503 121.3337837458 -10.0700390113 0.4832575126 1
2.3327604532 121.3337837458 -9.833099865 0.6977380806 1
4.1105364561 121.3337837458 -10.5175516718 1.1330799501 1
5.888312459 121.3337837458 -9.6959112301 1.1491506352 1
7.6660884619 121.3337837458 -9.5086218087 0.8757628373 1
9.4438644648 121.3337837458 -9.9553017949 0.4434953473 1
11.2216404676 121.3337837458 0 -0 0
12.9994164705 121.3337837458 0 -0 0
14.7771924734 121.3337837458 0 -0 0
16.5549684763 121.3337837458 0 -0 0
18.3327444792 121.3337837458 0 -0 0
20.1105204821 121.3337837458 0 -0 0
21.8882964849 121.3337837458 0 -0 0
23.6660724878 121.3337837458 0 -0 0
25.4438484907 121.3337837458 0 -0 0
27.2216244936 121.3337837458 0 -0 0
28.9994004965 121.3337837458 0 -0 0
30.7771764994 121.3337837458 0 -0 0
32.5549525023 121.3337837458 0 -0 0
34.3327285051 121.3337837458 0 -0 0
36.110504508 121.3337837458 -9.3853960402 -0.0295137565 1
37.8882805109 121.3337837458 -9.2032959766 0.6044771303 1
39.6660565138 121.3337837458 -9.69048417 0.7013107759 1
41.4438325167 121.3337837458 -9.8529079186 0.2869540163 1
43.2216085196 121.3337837458 0 -0 0
44.9993845224 121.3337837458 -8.7533354112 0.3934074482 1
46.7771605253 121.3337837458 -9.8624675634 0.4931064097 1
48.5549365282 121.3337837458 -9.0042560391 0.7202410491 1
50.3327125311 121.3337837458 -8.8650426382 0.356456185 1
52.110488534 121.3337837458 -9.4371908141 0.2010718631 1
53.8882645369 121.3337837458 0 -0 0
-125.6671117544 119.5560077429 0 -0 0
-123.8893357515 119.5560077429 -10.2169591239 -0.1634475872 1
-122.1115597486 119.5560077429 -10.3286090733 -0.321400813 1
-120.3337837458 119.5560077429 -9.8536668479 -0.2430406511 1
-118.5560077429 119.5560077429 -10.2302819123 -0.2978339116 1
-116.77823174 119.5560077429 -10.3861487986 -0.3125055893 1
-115.0004557371 119.5560077429 -10.4395473475 -0.126002304 1
-113.2226797342 119.5560077429 -10.2988776617 -0.1816275228 1
-111.4449037313 119.5560077429 -10.5625397095 -0.3785796888 1
-109.6671277285 119.5560077429 -10.8576629548 -0.1295850229 1
-107.8893517256 119.5560077429 -10.4976183232 0.1880712618 1
-106.1115757227 119.5560077429 -10.5760107038 -0.086281665 1
-104.3337997198 119.5560077429 -10.6200701271 -0.6093271179 1
-102.5560237169 119.5560077429 -10.6971171981 -0.435181492 1
-100.778247714 119.5560077429 -10.5275910171 0.0132239843 1
-99.0004717112 119.5560077429 -10.9431957142 -0.055423315 1
-97.2226957083 119.5560077429 -10.877705847 -0.5102195485 1
-95.4449197054 119.5560077429 -10.4462946582 -0.4382100494 1
-93.6671437025 119.5560077429 -10.7362822436 -0.5112519786 1
-91.8893676996 119.5560077429 -11.0317491551 -0.5650400158 1
-90.1115916967 119.5560077429 -10.8302920996 -0.6260894309 1
-88.3338156939 119.5560077429 -10.7914041348 -0.3781329229 1
-86.556039691 119.5560077429 -10.2042950289 -0.0189875509 1
-84.7782636881 119.5560077429 -10.9440670509 0.1528526484 1
-83.0004876852 119.5560077429 -10.9425470444 -0.2605361184 1
-81.2227116823 119.5560077429 -10.9135724141 -0.646478853 1
-79.4449356794 119.5560077429 -10.9037915343 -0.0714796806 1
-77.6671596766 119.5560077429 -10.2378454299 -0.3300769495 1
-75.8893836737 119.5560077429 -10.5945185541 -0.0438403362 1
-74.1116076708 119.5560077429 -10.6549586778 0.4725150838 1
-72.3338316679 119.5560077429 -10.7874813297 -0.1841491726 1
-70.556055665 119.5560077429 -10.8631293934 -0.5387323775 1
-68.7782796621 119.5560077429 0 -0 0
-67.0005036592 119.5560077429 0 -0 0
-65.2227276564 119.5560077429 0 -0 0
-63.4449516535 119.5560077429 0 -0 0
-61.6671756506 119.5560077429 0 -0 0
-59.8893996477 119.5560077429 -10.4027435743 0.5028321597 1
-58.1116236448 119.5560077429 -10.8346695462 0.3515732628 1
-56.3338476419 119.5560077429 -10.7636187323 -0.0791362744 1
-54.5560716391 119.5560077429 -10.4562509509 -0.0393225592 1
-52.7782956362 119.5560077429 -10.6992522236 0.617593719 1
-51.0005196333 119.5560077429 -10.7541550277 0.5606554094 1
-49.2227436304 119.5560077429 -10.8723532478 1.2098320411 1
-47.4449676275 119.5560077429 -10.9347085939 1.1139864356 1
-45.6671916246 119.5560077429 -10.9296516908 1.2653255212 1
-43.8894156218 119.5560077429 -9.9201819855 0.6857369747 1
-42.1116396189 119.5560077429 -10.6400786526 1.0997758432 1
-40.333863616 119.5560077429 -11.0240546148 1.3663089347 1
-38.5560876131 119.5560077429 -10.3696184601 0.8812686543 1
-36.7783116102 119.5560077429 -10.8040453187 0.5296567291 1
-35.0005356073 119.5560077429 -10.9655941509 0.3163131231 1
-33.2227596045 119.5560077429 -10.3022899794 0.8051208428 1
-31.4449836016 119.5560077429 -9.779257414 0.8554750831 1
-29.6672075987 119.5560077429 0 -0 0
-27.8894315958 119.5560077429 -9.9160193302 0.9847364871 1
-26.1116555929 119.5560077429 -9.4660988592 0.1513849078 1
-24.33387959 119.5560077429 -10.1771840711 0.3217401832 1
-22.5561035872 119.5560077429 -10.7291676398 0.6794822521 1
-20.7783275843 119.5560077429 -10.6145234997 0.7338874563 1
-19.0005515814 119.5560077429 -9.9490241612 0.5026674864 1
-17.2227755785 119.5560077429 -9.9612601056 1.2240684085 1
-15.4449995756 119.5560077429 -10.2860417336 0.9179134819 1
-13.6672235727 119.5560077429 0 -0 0
-11.8894475698 119.5560077429 -9.7807695447 1.1726602589 1
-10.111671567 119.5560077429 -9.9011486125 0.9664448601 1
-8.3338955641 119.5560077429 -9.9063193551 1.2130152482 1
-6.5561195612 119.5560077429 -9.9769355746 1.322802241 1
-4.7783435583 119.5560077429 -9.723242707 0.6907101093 1
-3.0005675554 119.5560077429 -8.5650006721 1.2071027597 1
-1.2227915525 119.5560077429 -9.3119517352 1.2427509557 1
0.5549844503 119.5560077429 -9.4680620516 1.1066720759 1
2.3327604532 119.5560077429 -9.8379441248 0.4978461377 1
4.1105364561 119.5560077429 -9.8294727559 0.3321174669 1
5.888312459 119.5560077429 -9.413666871 0.9078855921 1
7.6660884619 119.5560077429 -9.6402287337 1.0551522348 1
9.4438644648 119.5560077429 -9.8193288788 1.6407148433 1
11.2216404676 119.5560077429 0 -0 0
12.9994164705 119.5560077429 0 -0 0
14.7771924734 119.5560077429 0 -0 0
16.5549684763 119.5560077429 0 -0 0
18.3327444792 119.5560077429 0 -0 0
20.1105204821 119.5560077429 0 -0 0
21.8882964849 119.5560077429 0 -0 0
23.6660724878 119.5560077429 0 -0 0
25.4438484907 119.5560077429 0 -0 0
27.2216244936 119.5560077429 0 -0 0
28.9994004965 119.5560077429 0 -0 0
30.7771764994 119.5560077429 0 -0 0
32.5549525023 119.5560077429 0 -0 0
34.3327285051 119.5560077429 0 -0 0
36.110504508 119.5560077429 -9.6518260319 0.1037613809 1
37.8882805109 119.5560077429 -8.8340554135 -0.1188454579 1
39.6660565138 119.5560077429 -9.4783018689 0.4725351309 1
41.4438325167 119.5560077429 -9.5058338176 0.2609256066 1
43.2216085196 119.5560077429 0 -0 0
44.9993845224 119.5560077429 -9.5465911826 -0.4239307238 1
46.7771605253 119.5560077429 -9.5749751369 0.952178422 1
48.5549365282 119.5560077429 -8.9745504024 0.6401038472 1
50.3327125311 119.5560077429 -8.1675064615 -0.0203965818 1
52.110488534 119.5560077429 -8.750378451 -0.3499938307 1
53.8882645369 119.5560077429 0 -0 0
-125.6671117544 117.77823174 0 -0 0
-123.8893357515 117.77823174 -9.7563921642 -0.1903824161 1
-122.1115597486 117.77823174 -10.1579502262 -0.4275449454 1
-120.3337837458 117.77823174 -10.0628549583 -0.3593701869 1
-118.5560077429 117.77823174 -10.1382724793 -0.2528523177 1
-116.77823174 117.77823174 -9.7985356491 -0.2063070431 1
-115.0004557371 117.77823174 -10.7181638816 -0.0674917221 1
-113.2226797342 117.77823174 -10.4292831873 -0.557456451 1
-111.4449037313 117.77823174 -10.0066526669 -0.3297905611 1
-109.6671277285 117.77823174 -9.7880624253 -0.4778719788 1
-107.8893517256 117.77823174 -10.0457890736 -0.146615109 1
-106.1115757227 117.77823174 -10.7148023977 -0.2890417877 1
-104.3337997198 117.77823174 -10.9116264049 -0.3806803477 1
-102.5560237169 117.77823174 -10.6956337062 -0.1966414346 1
-100.778247714 117.77823174 -10.0155392989 -0.0392423704 1
-99.0004717112 117.77823174 -10.68625735 -0.255435541 1
-97.2226957083 117.77823174 -10.5356829213 -0.5608071953 1
-95.4449197054 117.77823174 -10.8551835473 -0.5829664977 1
-93.6671437025 117.77823174 -10.7335193116 -0.5498184724 1
-91.8893676996 117.77823174 -10.7501534658 -0.5021405317 1
-90.1115916967 117.77823174 -10.7362507409 -0.6215788136 1
-88.3338156939 117.77823174 -10.8048013841 -0.3136697581 1
-86.556039691 117.77823174 -10.5903916972 -0.0234752571 1
-84.7782636881 117.77823174 -11.2792682048 -0.1920463327 1
-83.0004876852 117.77823174 -10.8923710809 -0.2575777263 1
-81.2227116823 117.77823174 -10.8493376441 -0.2306658084 1
-79.4449356794 117.77823174 -10.7076269364 -0.3751029336 1
-77.6671596766 117.77823174 -10.5680999402 -0.1076576951 1
-75.8893836737 117.77823174 -10.8822551267 0.1198979353 1
-74.1116076708 117.77823174 -10.6589516481 0.3689169442 1
-72.3338316679 117.77823174 -10.6090570612 -0.0152258392 1
-70.556055665 117.77823174 -10.9007823082 -0.1557609226 1
-68.7782796621 117.77823174 0 -0 0
-67.0005036592 117.77823174 0 -0 0
-65.2227276564 117.77823174 0 -0 0
-63.4449516535 117.77823174 0 -0 0
-61.6671756506 117.77823174 0 -0 0
-59.8893996477 117.77823174 -10.8605440221 0.5724331324 1
-58.1116236448 117.77823174 -10.8725594474 0.406299222 1
-56.3338476419 117.77823174 -11.2464280471 0.7615339604 1
-54.5560716391 117.77823174 -10.9949475298 0.6913057972 1
-52.7782956362 117.77823174 -10.7686835112 0.6343044821 1
-51.0005196333 117.77823174 -11.0025819286 0.2787146221 1
-49.2227436304 117.77823174 -10.9924394834 0.6915778661 1
-47.4449676275 117.77823174 -11.227248616 0.9699545499 1
-45.6671916246 117.77823174 -10.3119183574 0.7190496733 1
-43.8894156218 117.77823174 0 -0 0
-42.1116396189 117.77823174 -10.9490136945 0.7918825391 1
-40.333863616 117.77823174 -10.7259679654 1.3622379236 1
-38.5560876131 117.77823174 -11.0474267721 1.2775228032 1
-36.7783116102 117.77823174 -10.9725347737 1.2595820019 1
-35.0005356073 117.77823174 -10.0239132957 0.9101466285 1
-33.2227596045 117.77823174 -10.4482392354 0.8451278703 1
-31.4449836016 117.77823174 -9.5562281523 0.8153277254 1
-29.6672075987 117.77823174 -10.6651813117 0.464583557 1
-27.8894315958 117.77823174 -10.6795057435 0.8147291736 1
-26.1116555929 117.77823174 -9.8499996444 0.9084297301 1
-24.33387959 117.77823174 -10.4258780292 0.4109859681 1
-22.5561035872 117.77823174 -9.7731573411 0.4605311612 1
-20.7783275843 117.77823174 -10.3995575034 0.5668299433 1
-19.0005515814 117.77823174 -10.5416505396 0.5692012393 1
-17.2227755785 117.77823174 -9.9796390811 0.9434464397 1
-15.4449995756 117.77823174 -9.8629086015 1.0990025945 1
-13.6672235727 117.77823174 -9.9271927736 1.4533452331 1
-11.8894475698 117.77823174 -9.9241370093 1.0313877254 1
-10.111671567 117.77823174 -10.18743248 0.9001158749 1
-8.3338955641 117.77823174 -9.492986434 1.3786436831 1
-6.5561195612 117.77823174 -9.9887591197 1.3660082269 1
-4.7783435583 117.77823174 -10.1256799814 0.9672009254 1
-3.0005675554 117.77823174 -9.4946689659 1.0722224153 1
-1.2227915525 117.77823174 -9.4639624017 1.4945135655 1
0.5549844503 117.77823174 -9.999342603 1.584831875 1
2.3327604532 117.77823174 -9.2939737035 0.3752189209 1