TITLE = "B00100"
VARIABLES = "x", "y", "Vx", "Vy", "isValid"
ZONE T="Frame 0", I=102, J=78, F=POINT
-125.6671117544 126.6671117544 0 -0 0
-123.8893357515 126.6671117544 0 -0 0
-122.1115597486 126.6671117544 0 -0 0
-120.3337837458 126.6671117544 0 -0 0
-118.5560077429 126.6671117544 0 -0 0
-116.77823174 126.6671117544 0 -0 0
-115.0004557371 126.6671117544 0 -0 0
-113.2226797342 126.6671117544 0 -0 0
-111.4449037313 126.6671117544 0 -0 0
-109.6671277285 126.6671117544 0 -0 0
-107.8893517256 126.6671117544 0 -0 0
-106.1115757227 126.6671117544 0 -0 0
-104.3337997198 126.6671117544 0 -0 0
-102.5560237169 126.6671117544 0 -0 0
-100.778247714 126.6671117544 0 -0 0
-99.0004717112 126.6671117544 0 -0 0
-97.2226957083 126.6671117544 0 -0 0
-95.4449197054 126.6671117544 0 -0 0
-93.6671437025 126.6671117544 0 -0 0
-91.8893676996 126.6671117544 0 -0 0
-90.1115916967 126.6671117544 0 -0 0
-88.3338156939 126.6671117544 0 -0 0
-86.556039691 126.6671117544 0 -0 0
-84.7782636881 126.6671117544 0 -0 0
-83.0004876852 126.6671117544 0 -0 0
-81.2227116823 126.6671117544 0 -0 0
-79.4449356794 126.6671117544 0 -0 0
-77.6671596766 126.6671117544 0 -0 0
-75.8893836737 126.6671117544 0 -0 0
-74.1116076708 126.6671117544 0 -0 0
-72.3338316679 126.6671117544 0 -0 0
-70.556055665 126.6671117544 0 -0 0
-68.7782796621 126.6671117544 0 -0 0
-67.0005036592 126.6671117544 0 -0 0
-65.2227276564 126.6671117544 0 -0 0
-63.4449516535 126.6671117544 0 -0 0
-61.6671756506 126.6671117544 0 -0 0
-59.8893996477 126.6671117544 0 -0 0
-58.1116236448 126.6671117544 0 -0 0
-56.3338476419 126.6671117544 0 -0 0
-54.5560716391 126.6671117544 0 -0 0
-52.7782956362 126.6671117544 0 -0 0
-51.0005196333 126.6671117544 0 -0 0
-49.2227436304 126.6671117544 0 -0 0
-47.4449676275 126.6671117544 0 -0 0
-45.6671916246 126.6671117544 0 -0 0
-43.8894156218 126.6671117544 0 -0 0
-42.1116396189 126.6671117544 0 -0 0
-40.333863616 126.6671117544 0 -0 0
-38.5560876131 126.6671117544 0 -0 0
-36.7783116102 126.6671117544 0 -0 0
-35.0005356073 126.6671117544 0 -0 0
-33.2227596045 126.6671117544 0 -0 0
-31.4449836016 126.6671117544 0 -0 0
-29.6672075987 126.6671117544 0 -0 0
-27.8894315958 126.6671117544 0 -0 0
-26.1116555929 126.6671117544 0 -0 0
-24.33387959 126.6671117544 0 -0 0
-22.5561035872 126.6671117544 0 -0 0
-20.7783275843 126.6671117544 0 -0 0
-19.0005515814 126.6671117544 0 -0 0
-17.2227755785 126.6671117544 0 -0 0
-15.4449995756 126.6671117544 0 -0 0
-13.6672235727 126.6671117544 0 -0 0
-11.8894475698 126.6671117544 0 -0 0
-10.111671567 126.6671117544 0 -0 0
-8.3338955641 126.6671117544 0 -0 0
-6.5561195612 126.6671117544 0 -0 0
-4.7783435583 126.6671117544 0 -0 0
-3.0005675554 126.6671117544 0 -0 0
-1.2227915525 126.6671117544 0 -0 0
0.5549844503 126.6671117544 0 -0 0
2.3327604532 126.6671117544 0 -0 0
4.1105364561 126.6671117544 0 -0 0
5.888312459 126.6671117544 0 -0 0
7.6660884619 126.6671117544 0 -0 0
9.4438644648 126.6671117544 0 -0 0
11.2216404676 126.6671117544 0 -0 0
12.9994164705 126.6671117544 0 -0 0
14.7771924734 126.6671117544 0 -0 0
16.5549684763 126.6671117544 0 -0 0
18.3327444792 126.6671117544 0 -0 0
20.1105204821 126.6671117544 0 -0 0
21.8882964849 126.6671117544 0 -0 0
23.6660724878 126.6671117544 0 -0 0
25.4438484907 126.6671117544 0 -0 0
27.2216244936 126.6671117544 0 -0 0
28.9994004965 126.6671117544 0 -0 0
30.7771764994 126.6671117544 0 -0 0
32.5549525023 126.6671117544 0 -0 0
34.3327285051 126.6671117544 0 -0 0
36.110504508 126.6671117544 0 -0 0
37.8882805109 126.6671117544 0 -0 0
39.6660565138 126.6671117544 0 -0 0
41.4438325167 126.6671117544 0 -0 0
43.2216085196 126.6671117544 0 -0 0
44.9993845224 126.6671117544 0 -0 0
46.7771605253 126.6671117544 0 -0 0
48.5549365282 126.6671117544 0 -0 0
50.3327125311 126.6671117544 0 -0 0
52.110488534 126.6671117544 0 -0 0
53.8882645369 126.6671117544 0 -0 0
-125.6671117544 124.8893357515 0 -0 0
-123.8893357515 124.8893357515 -10.2875653199 -0.4286174699 1
-122.1115597486 124.8893357515 -10.5426607747 -0.274149591 1
-120.3337837458 124.8893357515 -10.6147561903 0.1155476955 1
-118.5560077429 124.8893357515 -10.5811814463 0.1075989855 1
-116.77823174 124.8893357515 -10.8807766466 -0.0788727971 1
-115.0004557371 124.8893357515 -10.7283700481 0.1576682693 1
-113.2226797342 124.8893357515 -10.2317797236 -0.0311261232 1
-111.4449037313 124.8893357515 -10.3241356865 0.0152587739 1
-109.6671277285 124.8893357515 -10.4340773291 -0.3208838819 1
-107.8893517256 124.8893357515 -10.6123462319 0.066012526 1
-106.1115757227 124.8893357515 -10.7374406847 -0.2364308069 1
-104.3337997198 124.8893357515 -10.7393866939 -0.2164867187 1
-102.5560237169 124.8893357515 -10.7635979692 -0.2773070231 1
-100.778247714 124.8893357515 -11.0688400327 -0.0504802512 1
-99.0004717112 124.8893357515 -10.8840156994 0.4049131021 1
-97.2226957083 124.8893357515 -11.0450912747 -0.0612069287 1
-95.4449197054 124.8893357515 -10.8457413218 0.015158538 1
-93.6671437025 124.8893357515 -10.790905103 0.1495921164 1
-91.8893676996 124.8893357515 -10.8652121531 -0.3528290759 1
-90.1115916967 124.8893357515 -10.8205484503 -0.1035107911 1
-88.3338156939 124.8893357515 -10.7341658334 0.1145081056 1
-86.556039691 124.8893357515 0 -0 0
-84.7782636881 124.8893357515 0 -0 0
-83.0004876852 124.8893357515 -10.2631492769 0.0866539699 1
-81.2227116823 124.8893357515 -10.3399271429 0.2222159187 1
-79.4449356794 124.8893357515 -10.3722718487 0.3702644016 1
-77.6671596766 124.8893357515 -10.6407817361 0.4264122792 1
-75.8893836737 124.8893357515 -10.4713207085 0.5582382913 1
-74.1116076708 124.8893357515 -10.7534669795 0.4962180196 1
-72.3338316679 124.8893357515 -10.9030454925 0.3043019936 1
-70.556055665 124.8893357515 -10.9269460364 0.4834837594 1
-68.7782796621 124.8893357515 0 -0 0
-67.0005036592 124.8893357515 0 -0 0
-65.2227276564 124.8893357515 0 -0 0
-63.4449516535 124.8893357515 0 -0 0
-61.6671756506 124.8893357515 0 -0 0
-59.8893996477 124.8893357515 0 -0 0
-58.1116236448 124.8893357515 -10.8072535848 0.8432677776 1
-56.3338476419 124.8893357515 -11.0719874412 1.1058802119 1
-54.5560716391 124.8893357515 -10.4131108344 0.5428606663 1
-52.7782956362 124.8893357515 -10.1594265584 -0.1071235807 1
-51.0005196333 124.8893357515 -10.2156388734 0.4246867891 1
-49.2227436304 124.8893357515 -10.1109796649 0.7599130021 1
-47.4449676275 124.8893357515 -9.8244452076 1.0771082014 1
-45.6671916246 124.8893357515 -9.8922720041 1.4726077168 1
-43.8894156218 124.8893357515 -10.6841774543 0.9232403062 1
-42.1116396189 124.8893357515 -10.9167155268 0.905026004 1
-40.333863616 124.8893357515 -9.8305595999 0.4682650799 1
-38.5560876131 124.8893357515 -10.5158770156 0.3408709283 1
-36.7783116102 124.8893357515 -10.4533741794 0.8025390514 1
-35.0005356073 124.8893357515 0 -0 0
-33.2227596045 124.8893357515 -10.6129497955 1.073661517 1
-31.4449836016 124.8893357515 -10.1030080438 1.7196978999 1
-29.6672075987 124.8893357515 -10.7131986227 0.7701528193 1
-27.8894315958 124.8893357515 -9.3320361537 1.0711799615 1
-26.1116555929 124.8893357515 -10.0873655094 0.9843584544 1
-24.33387959 124.8893357515 -10.9927480669 1.0886124234 1
-22.5561035872 124.8893357515 -10.5469437132 1.011005463 1
-20.7783275843 124.8893357515 -9.9249073941 0.7665930115 1
-19.0005515814 124.8893357515 -9.9281335594 0.7800002844 1
-17.2227755785 124.8893357515 -10.3396908724 0.9274301684 1
-15.4449995756 124.8893357515 -9.9672198482 1.0543474834 1
-13.6672235727 124.8893357515 -9.7605920501 0.9001187387 1
-11.8894475698 124.8893357515 -10.1409029568 1.0048867749 1
-10.111671567 124.8893357515 -8.8939435236 0.8498403914 1
-8.3338955641 124.8893357515 -9.9521543864 0.7366811751 1
-6.5561195612 124.8893357515 -9.0312295305 0.8738325795 1
-4.7783435583 124.8893357515 -9.9072801882 0.7206061943 1
-3.0005675554 124.8893357515 -10.567958178 1.1363290265 1
-1.2227915525 124.8893357515 -10.5214043117 0.9141331551 1
0.5549844503 124.8893357515 -9.8587817447 0.6676916417 1
2.3327604532 124.8893357515 -9.6687616099 1.323592673 1
4.1105364561 124.8893357515 -9.6520222079 0.865846639 1
5.888312459 124.8893357515 -9.9032005854 0.7340736088 1
7.6660884619 124.8893357515 -9.9217943522 1.3969639489 1
9.4438644648 124.8893357515 -9.7243653495 0.8677396663 1
11.2216404676 124.8893357515 0 -0 0
12.9994164705 124.8893357515 0 -0 0
14.7771924734 124.8893357515 0 -0 0
16.5549684763 124.8893357515 0 -0 0
18.3327444792 124.8893357515 0 -0 0
20.1105204821 124.8893357515 0 -0 0
21.8882964849 124.8893357515 0 -0 0
23.6660724878 124.8893357515 0 -0 0
25.4438484907 124.8893357515 0 -0 0
27.2216244936 124.8893357515 0 -0 0
28.9994004965 124.8893357515 0 -0 0
30.7771764994 124.8893357515 0 -0 0
32.5549525023 124.8893357515 0 -0 0
34.3327285051 124.8893357515 0 -0 0
36.110504508 124.8893357515 -9.4799486022 0.7467405677 1
37.8882805109 124.8893357515 -9.7815342018 0.9866839282 1
39.6660565138 124.8893357515 -9.7556031642 0.2719229212 1
41.4438325167 124.8893357515 -9.7724027077 0.2862566606 1
43.2216085196 124.8893357515 -9.4995919825 0.3312296628 1
44.9993845224 124.8893357515 -8.6913967602 0.5799178932 1
46.7771605253 124.8893357515 -9.669944394 0.3108502643 1
48.5549365282 124.8893357515 -9.8505752851 -0.107140764 1
50.3327125311 124.8893357515 -9.6478924872 0.1735341866 1
52.110488534 124.8893357515 -9.4509975989 0.1622275726 1
53.8882645369 124.8893357515 0 -0 0
-125.6671117544 123.1115597486 0 -0 0
-123.8893357515 123.1115597486 -10.5946037546 -0.422739348 1
-122.1115597486 123.1115597486 -10.2779612849 -0.034610038 1
-120.3337837458 123.1115597486 -10.6633162073 -0.1283306417 1
-118.5560077429 123.1115597486 -10.5620893637 0.0918719665 1
-116.77823174 123.1115597486 -10.8428201601 -0.3109118378 1
-115.0004557371 123.1115597486 -10.4933196334 -0.2170781108 1
-113.2226797342 123.1115597486 -9.7680152374 -0.2044655657 1
-111.4449037313 123.1115597486 -10.4627834703 -0.2488529037 1
-109.6671277285 123.1115597486 -10.3264912311 -0.2067624006 1
-107.8893517256 123.1115597486 -10.6848153844 0.0304130161 1
-106.1115757227 123.1115597486 -10.9152485022 -0.1269488177 1
-104.3337997198 123.1115597486 -10.930906072 -0.1026645134 1
-102.5560237169 123.1115597486 -10.9693372472 -0.1028177311 1
-100.778247714 123.1115597486 -10.7114108431 -0.0587425565 1
-99.0004717112 123.1115597486 -10.8289518019 0.1845916427 1
-97.2226957083 123.1115597486 -10.7892204233 0.1217351169 1
-95.4449197054 123.1115597486 -10.5712258696 0.2205562979 1
-93.6671437025 123.1115597486 -10.7669895238 0.3982373885 1
-91.8893676996 123.1115597486 -10.8933455174 0.0752671671 1
-90.1115916967 123.1115597486 -10.8276573263 0.0151656977 1
-88.3338156939 123.1115597486 -10.3117021342 0.3106827271 1
-86.556039691 123.1115597486 -10.8967714387 0.2284434344 1
-84.7782636881 123.1115597486 -10.8417247245 0.2568402761 1
-83.0004876852 123.1115597486 -10.2157691801 0.2519244193 1
-81.2227116823 123.1115597486 -10.3901081182 0.2315435888 1
-79.4449356794 123.1115597486 -10.8665861014 0.4198625766 1
-77.6671596766 123.1115597486 -10.7983762604 0.2886250926 1
-75.8893836737 123.1115597486 -10.8359053122 0.5011553556 1
-74.1116076708 123.1115597486 -10.7243212321 0.441576545 1
-72.3338316679 123.1115597486 -10.475997431 0.6354528996 1
-70.556055665 123.1115597486 -11.0057472364 0.4904229504 1
-68.7782796621 123.1115597486 0 -0 0
-67.0005036592 123.1115597486 0 -0 0
-65.2227276564 123.1115597486 0 -0 0
-63.4449516535 123.1115597486 0 -0 0
-61.6671756506 123.1115597486 0 -0 0
-59.8893996477 123.1115597486 0 -0 0
-58.1116236448 123.1115597486 -9.9022855745 0.2656782221 1
-56.3338476419 123.1115597486 -9.6132638339 0.6600293201 1
-54.5560716391 123.1115597486 -10.3132586551 0.5535887757 1
-52.7782956362 123.1115597486 -10.2689686892 0.5601742769 1
-51.0005196333 123.1115597486 -10.1246189124 0.5314652718 1
-49.2227436304 123.1115597486 -10.3117708674 0.9368781217 1
-47.4449676275 123.1115597486 -10.2053890326 0.8364918281 1
-45.6671916246 123.1115597486 -9.9252195575 1.0709379633 1
-43.8894156218 123.1115597486 -10.4654654977 1.1123898202 1
-42.1116396189 123.1115597486 -10.604963855 0.6854505863 1
-40.333863616 123.1115597486 -10.1993448055 0.4424228227 1
-38.5560876131 123.1115597486 -10.5756949606 0.6326233822 1
-36.7783116102 123.1115597486 -10.827268554 0.5269016727 1
-35.0005356073 123.1115597486 -10.0839302806 0.6019626402 1
-33.2227596045 123.1115597486 -10.1838368736 1.1832924282 1
-31.4449836016 123.1115597486 -10.3671913185 1.2411987306 1
-29.6672075987 123.1115597486 0 -0 0
-27.8894315958 123.1115597486 0 -0 0
-26.1116555929 123.1115597486 -10.2859758643 1.5237366377 1
-24.33387959 123.1115597486 -10.1783024178 1.0469214322 1
-22.5561035872 123.1115597486 -10.1578915166 0.8930077148 1
-20.7783275843 123.1115597486 -9.8935765033 1.1121950761 1
-19.0005515814 123.1115597486 -10.044173843 1.0462484194 1
-17.2227755785 123.1115597486 -10.1853776432 1.3740228062 1
-15.4449995756 123.1115597486 -10.0049858864 0.5203290589 1
-13.6672235727 123.1115597486 -10.8314627121 1.0353126784 1
-11.8894475698 123.1115597486 -10.1031354866 1.1068496367 1
-10.111671567 123.1115597486 -8.7511388122 0.9921109884 1
-8.3338955641 123.1115597486 -9.7296105531 1.1463955788 1
-6.5561195612 123.1115597486 0 -0 0
-4.7783435583 123.1115597486 -9.6819397721 0.8127788686 1
-3.0005675554 123.1115597486 -9.684928235 1.4834246067 1
-1.2227915525 123.1115597486 -9.8830474338 0.8417441913 1
0.5549844503 123.1115597486 -9.8884200801 0.2883487278 1
2.3327604532 123.1115597486 -9.5814747216 0.7348096269 1
4.1105364561 123.1115597486 -9.9848313028 0.6532848733 1
5.888312459 123.1115597486 -10.1031483741 0.6861923323 1
7.6660884619 123.1115597486 -9.2074256973 0.8058797721 1
9.4438644648 123.1115597486 -9.4190309258 0.9872294981 1
11.2216404676 123.1115597486 0 -0 0
12.9994164705 123.1115597486 0 -0 0
14.7771924734 123.1115597486 0 -0 0
16.5549684763 123.1115597486 0 -0 0
18.3327444792 123.1115597486 0 -0 0
20.1105204821 123.1115597486 0 -0 0
21.8882964849 123.1115597486 0 -0 0
23.6660724878 123.1115597486 0 -0 0
25.4438484907 123.1115597486 0 -0 0
27.2216244936 123.1115597486 0 -0 0
28.9994004965 123.1115597486 0 -0 0
30.7771764994 123.1115597486 0 -0 0
32.5549525023 123.1115597486 0 -0 0
34.3327285051 123.1115597486 0 -0 0
36.110504508 123.1115597486 -8.9243393563 0.8505205638 1
37.8882805109 123.1115597486 -9.016305831 0.5178446396 1
39.6660565138 123.1115597486 -9.0990463034 0.2774874478 1
41.4438325167 123.1115597486 -9.6269374481 0.4110718846 1
43.2216085196 123.1115597486 -9.773357813 0.5432358351 1
44.9993845224 123.1115597486 -8.9047503898 0.7744500772 1
46.7771605253 123.1115597486 -9.3578798428 0.5776482651 1
48.5549365282 123.1115597486 -9.6115211605 0.6087987313 1
50.3327125311 123.1115597486 -9.3068397023 0.2440745132 1
52.110488534 123.1115597486 -9.2631454242 -0.3595348603 1
53.8882645369 123.1115597486 0 -0 0
-125.6671117544 121.3337837458 0 -0 0
-123.8893357515 121.3337837458 -10.5058663091 -0.2841731849 1
-122.1115597486 121.3337837458 -10.2281841173 -0.3195536078 1
-120.3337837458 121.3337837458 -10.3310748774 -0.4516788958 1
-118.5560077429 121.3337837458 -10.2352980051 -0.4363385012 1
-116.77823174 121.3337837458 -10.2269956054 -0.39025288 1
-115.0004557371 121.3337837458 -10.1012639384 -0.3696243236 1
-113.2226797342 121.3337837458 -9.790269048 -0.2283875887 1
-111.4449037313 121.3337837458 -10.4184219073 -0.1118833559 1
-109.6671277285 121.3337837458 -10.3305937449 -0.0703140798 1
-107.8893517256 121.3337837458 -10.6073408787 -0.1884979805 1
-106.1115757227 121.3337837458 -10.8788048624 -0.3812574203 1
-104.3337997198 121.3337837458 -10.9481795883 -0.224651652 1
-102.5560237169 121.3337837458 -11.0749386736 -0.3993843741 1
-100.778247714 121.3337837458 -10.6732660562 -0.2057471538 1
-99.0004717112 121.3337837458 -10.4832702644 0.0634536457 1
-97.2226957083 121.3337837458 -10.4363455252 0.0627734732 1
-95.4449197054 121.3337837458 -10.6537529827 0.2148543049 1
-93.6671437025 121.3337837458 -10.3164389983 0.0349852068 1
-91.8893676996 121.3337837458 -10.6538596623 0.1859161891 1
-90.1115916967 121.3337837458 -10.7359944233 -0.0106464887 1
-88.3338156939 121.3337837458 -10.3541162561 0.3323050513 1
-86.556039691 121.3337837458 -10.9792577414 0.379662237 1
-84.7782636881 121.3337837458 -10.3011344022 0.519835039 1
-83.0004876852 121.3337837458 -10.590744671 -0.2278935687 1
-81.2227116823 121.3337837458 -10.8766870202 0.0937836091 1
-79.4449356794 121.3337837458 -10.9868491819 0.3067391589 1
-77.6671596766 121.3337837458 -10.6600864621 0.3406418176 1
-75.8893836737 121.3337837458 -10.594200663 0.0756451998 1
-74.1116076708 121.3337837458 -10.8322202095 0.3001951839 1
-72.3338316679 121.3337837458 -10.5370826446 0.728192623 1
-70.556055665 121.3337837458 -10.8217369621 0.6927434669 1
-68.7782796621 121.3337837458 0 -0 0
-67.0005036592 121.3337837458 0 -0 0
-65.2227276564 121.3337837458 0 -0 0
-63.4449516535 121.3337837458 0 -0 0
-61.6671756506 121.3337837458 0 -0 0
-59.8893996477 121.3337837458 -10.1946609232 0.7604285012 1
-58.1116236448 121.3337837458 -10.9046113211 0.8828251753 1
-56.3338476419 121.3337837458 -10.3341206181 0.6880896554 1
-54.5560716391 121.3337837458 -10.6384863331 0.4157214003 1
-52.7782956362 121.3337837458 -10.6046252007 0.7333948683 1
-51.0005196333 121.3337837458 -10.4332811694 0.7461448798 1
-49.2227436304 121.3337837458 -11.1596759892 1.350501727 1
-47.4449676275 121.3337837458 -10.2085178259 0.8934587765 1
-45.6671916246 121.3337837458 -10.8317748755 1.096127255 1
-43.8894156218 121.3337837458 -11.0762095221 0.9992363318 1
-42.1116396189 121.3337837458 -10.2027986495 0.7873447149 1
-40.333863616 121.3337837458 -10.05856486 1.0081530346 1
-38.5560876131 121.3337837458 -10.4651733815 1.3801014 1
-36.7783116102 121.3337837458 -10.3865468784 0.8191624661 1
-35.0005356073 121.3337837458 -10.1878935653 0.2945676519 1
-33.2227596045 121.3337837458 -9.6652819908 1.1797211648 1
-31.4449836016 121.3337837458 -9.9409050501 0.7273105467 1
-29.6672075987 121.3337837458 0 -0 0
-27.8894315958 121.3337837458 -9.9787713243 0.5724317004 1
-26.1116555929 121.3337837458 -10.3100367856 1.2164375896 1
-24.33387959 121.3337837458 -10.1127853437 1.3257448818 1
-22.5561035872 121.3337837458 -9.9174512722 0.6709263987 1
-20.7783275843 121.3337837458 -9.5962938893 1.0687442282 1
-19.0005515814 121.3337837458 -10.4268388623 1.1150260255 1
-17.2227755785 121.3337837458 -10.0126668232 1.1306084183 1
-15.4449995756 121.3337837458 -10.6117204733 0.8704904269 1
-13.6672235727 121.3337837458 -10.8003945826 0.8892202282 1
-11.8894475698 121.3337837458 -10.8838868246 1.4788653034 1
-10.111671567 121.3337837458 -9.9844146077 1.1999473455 1
-8.3338955641 121.3337837458 -9.5736262475 1.3112665163 1
-6.5561195612 121.3337837458 -10.0030241258 1.0139810385 1
-4.7783435583 121.3337837458 -10.3036445966 0.8286347624 1
-3.0005675554 121.3337837458 -9.7024093829 1.6203741072 1
-1.2227915525 121.3337837458 -10.2868536447 0.7967711891 1
0.5549844503 121.3337837458 -9.5022740098 0.6705011119 1
2.3327604532 121.3337837458 -9.8305166416 1.2792898196 1
4.1105364561 121.3337837458 -10.0299374757 1.3176472498 1
5.888312459 121.3337837458 -9.8092365516 0.858688361 1
7.6660884619 121.3337837458 -9.8545689713 0.6503092978 1
9.4438644648 121.3337837458 -9.2815100803 0.7159094245 1
11.2216404676 121.3337837458 0 -0 0
12.9994164705 121.3337837458 0 -0 0
14.7771924734 121.3337837458 0 -0 0
16.5549684763 121.3337837458 0 -0 0
18.3327444792 121.3337837458 0 -0 0
20.1105204821 121.3337837458 0 -0 0
21.8882964849 121.3337837458 0 -0 0
23.6660724878 121.3337837458 0 -0 0
25.4438484907 121.3337837458 0 -0 0
27.2216244936 121.3337837458 0 -0 0
28.9994004965 121.3337837458 0 -0 0
30.7771764994 121.3337837458 0 -0 0
32.5549525023 121.3337837458 0 -0 0
34.3327285051 121.3337837458 0 -0 0
36.110504508 121.3337837458 -8.3552784474 0.6230952402 1
37.8882805109 121.3337837458 -8.7592307164 0.724488189 1
39.6660565138 121.3337837458 -9.0751056652 0.6316553894 1
41.4438325167 121.3337837458 -9.4742451772 0.4313940055 1
43.2216085196 121.3337837458 -9.4792784533 0.5961088613 1
44.9993845224 121.3337837458 -9.353258966 0.8609422377 1
46.7771605253 121.3337837458 -9.1032318699 0.7417416581 1
48.5549365282 121.3337837458 -9.5261817134 -0.1236038012 1
50.3327125311 121.3337837458 -8.9278318628 0.3292922453 1
52.110488534 121.3337837458 0 -0 0
53.8882645369 121.3337837458 0 -0 0
-125.6671117544 119.5560077429 0 -0 0
-123.8893357515 119.5560077429 -10.4603334175 -0.5229495128 1
-122.1115597486 119.5560077429 -10.4823079994 -0.4949851176 1
-120.3337837458 119.5560077429 -10.3587299732 -0.5750707695 1
-118.5560077429 119.5560077429 -10.2096662434 -0.5314896149 1
-116.77823174 119.5560077429 -10.6586903187 -0.1197704924 1
-115.0004557371 119.5560077429 -10.2797841471 -0.1410935407 1
-113.2226797342 119.5560077429 -10.1427329786 -0.2108778019 1
-111.4449037313 119.5560077429 -10.1616360449 -0.0414461291 1
-109.6671277285 119.5560077429 -10.4729230516 -0.1030368183 1
-107.8893517256 119.5560077429 -10.391693278 -0.0806942273 1
-106.1115757227 119.5560077429 -10.6320812565 -0.4890325347 1
-104.3337997198 119.5560077429 -11.1642940021 -0.3924953011 1
-102.5560237169 119.5560077429 -11.2396034115 -0.2435905168 1
-100.778247714 119.5560077429 -10.9707283789 -0.2158824392 1
-99.0004717112 119.5560077429 -10.583115284 -0.1264948921 1
-97.2226957083 119.5560077429 -10.4467314005 -0.2545620564 1
-95.4449197054 119.5560077429 -10.6881518093 0.1033217747 1
-93.6671437025 119.5560077429 -10.2871572164 -0.3163761285 1
-91.8893676996 119.5560077429 -10.5813854981 0.1329758615 1
-90.1115916967 119.5560077429 -10.4804436109 0.0848554507 1
-88.3338156939 119.5560077429 -11.0978812483 -0.0151399227 1
-86.556039691 119.5560077429 -11.108133953 0.2357706816 1
-84.7782636881 119.5560077429 -10.2978795981 0.3403181987 1
-83.0004876852 119.5560077429 -11.0032520774 0.3570404173 1
-81.2227116823 119.5560077429 -11.2413067065 0.0476607574 1
-79.4449356794 119.5560077429 -11.064066654 0.4277153465 1
-77.6671596766 119.5560077429 -10.8659732302 0.4015795412 1
-75.8893836737 119.5560077429 -10.5451630933 0.1837095664 1
-74.1116076708 119.5560077429 -10.6651548208 0.3508458362 1
-72.3338316679 119.5560077429 -10.725780381 0.71740294 1
-70.556055665 119.5560077429 -11.0439557447 0.5083265211 1
-68.7782796621 119.5560077429 0 -0 0
-67.0005036592 119.5560077429 0 -0 0
-65.2227276564 119.5560077429 0 -0 0
-63.4449516535 119.5560077429 0 -0 0
-61.6671756506 119.5560077429 0 -0 0
-59.8893996477 119.5560077429 -10.3186499167 0.7622828661 1
-58.1116236448 119.5560077429 -10.9158792727 1.0235421152 1
-56.3338476419 119.5560077429 -9.935648391 0.8385566884 1
-54.5560716391 119.5560077429 -10.2337815785 0.8539013789 1
-52.7782956362 119.5560077429 -10.518360719 0.849430856 1
-51.0005196333 119.5560077429 -10.2786085227 0.7387904257 1
-49.2227436304 119.5560077429 -10.7187660132 0.6266421605 1
-47.4449676275 119.5560077429 -10.9469559938 0.7330698174 1
-45.6671916246 119.5560077429 -10.4648526265 1.2822797145 1
-43.8894156218 119.5560077429 -10.8938717561 0.8391652638 1
-42.1116396189 119.5560077429 -10.0955819926 0.5372932758 1
-40.333863616 119.5560077429 -10.2139692291 1.1792128254 1
-38.5560876131 119.5560077429 -9.9997936647 1.4827573217 1
-36.7783116102 119.5560077429 -10.4282965793 1.01310469 1
-35.0005356073 119.5560077429 -9.9402048305 0.8505520665 1
-33.2227596045 119.5560077429 -9.7917110135 1.557453144 1
-31.4449836016 119.5560077429 -9.6996801015 1.5877387172 1
-29.6672075987 119.5560077429 0 -0 0
-27.8894315958 119.5560077429 0 -0 0
-26.1116555929 119.5560077429 -10.2604429065 1.1325859302 1
-24.33387959 119.5560077429 -10.153982315 1.467889468 1
-22.5561035872 119.5560077429 -10.1479524072 0.9974893625 1
-20.7783275843 119.5560077429 -9.5957211125 1.4685252502 1
-19.0005515814 119.5560077429 -10.3669879827 1.3884267108 1
-17.2227755785 119.5560077429 -10.2087039783 0.8899634061 1
-15.4449995756 119.5560077429 -10.2841787771 0.4868302079 1
-13.6672235727 119.5560077429 -10.6628508261 0.4478040607 1
-11.8894475698 119.5560077429 -10.6754733948 0.4030272345 1
-10.111671567 119.5560077429 -10.2632165782 1.0997171336 1
-8.3338955641 119.5560077429 -9.9773250628 0.9251906112 1
-6.5561195612 119.5560077429 -10.0661341054 1.0750547966 1
-4.7783435583 119.5560077429 -10.0097642768 0.8379524089 1
-3.0005675554 119.5560077429 -9.9531424264 0.9993322719 1
-1.2227915525 119.5560077429 -10.0043458083 0.8652652706 1
0.5549844503 119.5560077429 -9.2546812151 0.782529094 1
2.3327604532 119.5560077429 -9.6734182852 1.3714768134 1
4.1105364561 119.5560077429 -9.9070711246 1.6985280694 1
5.888312459 119.5560077429 -9.7375435117 0.845752197 1
7.6660884619 119.5560077429 -9.9084142862 0.5995698651 1
9.4438644648 119.5560077429 -9.9054501663 0.6311341625 1
11.2216404676 119.5560077429 0 -0 0
12.9994164705 119.5560077429 0 -0 0
14.7771924734 119.5560077429 0 -0 0
16.5549684763 119.5560077429 0 -0 0
18.3327444792 119.5560077429 0 -0 0
20.1105204821 119.5560077429 0 -0 0
21.8882964849 119.5560077429 0 -0 0
23.6660724878 119.5560077429 0 -0 0
25.4438484907 119.5560077429 0 -0 0
27.2216244936 119.5560077429 0 -0 0
28.9994004965 119.5560077429 0 -0 0
30.7771764994 119.5560077429 0 -0 0
32.5549525023 119.5560077429 0 -0 0
34.3327285051 119.5560077429 0 -0 0
36.110504508 119.5560077429 -9.398360843 0.3270999421 1
37.8882805109 119.5560077429 -8.8926290008 0.3141637781 1
39.6660565138 119.5560077429 -9.1411769008 0.6653217777 1
41.4438325167 119.5560077429 -9.1093935163 0.3125542753 1
43.2216085196 119.5560077429 -9.5555422521 0.2349286997 1
44.9993845224 119.5560077429 -9.4912308731 0.5808758624 1
46.7771605253 119.5560077429 -9.5015294 0.7051741554 1
48.5549365282 119.5560077429 -9.9651191893 0.5679354025 1
50.3327125311 119.5560077429 -9.5593669691 0.5876031259 1
52.110488534 119.5560077429 -9.3836118405 -0.0338367894 1
53.8882645369 119.5560077429 0 -0 0
-125.6671117544 117.77823174 0 -0 0
-123.8893357515 117.77823174 -10.5401541602 -0.4724993324 1
-122.1115597486 117.77823174 -10.9585640316 -0.23803315 1
-120.3337837458 117.77823174 -10.7450178058 -0.1904439897 1
-118.5560077429 117.77823174 -10.0956607494 -0.2416473715 1
-116.77823174 117.77823174 -10.9271379166 -0.3324826121 1
-115.0004557371 117.77823174 -10.4897784408 -0.1360616965 1
-113.2226797342 117.77823174 -10.2022831504 -0.1830308259 1
-111.4449037313 117.77823174 -10.071700064 -0.3674706828 1
-109.6671277285 117.77823174 -10.9013400496 -0.2949657318 1
-107.8893517256 117.77823174 -10.7444321415 -0.0027851272 1
-106.1115757227 117.77823174 -10.3644219426 -0.2198045283 1
-104.3337997198 117.77823174 -10.8626776157 -0.4404768135 1
-102.5560237169 117.77823174 -11.024172034 0.0444947336 1
-100.778247714 117.77823174 -10.8396040184 -0.1438643485 1
-99.0004717112 117.77823174 -11.0758586964 -0.2332518956 1
-97.2226957083 117.77823174 -10.5802778909 0.0530090608 1
-95.4449197054 117.77823174 -10.5839186035 -0.0496354054 1
-93.6671437025 117.77823174 -10.3063294878 -0.0869102875 1
-91.8893676996 117.77823174 -10.7724366311 0.2541854557 1
-90.1115916967 117.77823174 -10.3871096316 0.3366452675 1
-88.3338156939 117.77823174 -11.1264227162 -0.0307122919 1
-86.556039691 117.77823174 -10.7616183093 0.455598121 1
-84.7782636881 117.77823174 -10.8733906898 0.3723650605 1
-83.0004876852 117.77823174 -10.9505601918 0.2162031942 1
-81.2227116823 117.77823174 -11.2753045894 0.2233514487 1
-79.4449356794 117.77823174 -11.0055997463 0.4773564796 1
-77.6671596766 117.77823174 -11.0174003803 0.4678369293 1
-75.8893836737 117.77823174 -11.1549341132 0.2893997732 1
-74.1116076708 117.77823174 -10.5205021883 0.6341054422 1
-72.3338316679 117.77823174 -10.9987915781 0.1229093093 1
-70.556055665 117.77823174 -11.20680836 0.4169543024 1
-68.7782796621 117.77823174 0 -0 0
-67.0005036592 117.77823174 0 -0 0
-65.2227276564 117.77823174 0 -0 0
-63.4449516535 117.77823174 0 -0 0
-61.6671756506 117.77823174 0 -0 0
-59.8893996477 117.77823174 -10.4123991592 0.5462701201 1
-58.1116236448 117.77823174 -10.5150486372 0.6083462376 1
-56.3338476419 117.77823174 -9.9812843825 1.0572271187 1
-54.5560716391 117.77823174 -10.784833669 0.9880943911 1
-52.7782956362 117.77823174 -10.902195635 0.8974195281 1
-51.0005196333 117.77823174 -10.9127762544 0.2950144178 1
-49.2227436304 117.77823174 -10.5693178069 0.4757885032 1
-47.4449676275 117.77823174 -10.6732023348 0.888386838 1
-45.6671916246 117.77823174 -10.3828968583 1.2206861615 1
-43.8894156218 117.77823174 -10.1004477315 0.6245157266 1
-42.1116396189 117.77823174 -10.124578818 0.615299748 1
-40.333863616 117.77823174 -10.6690625905 1.0025097512 1
-38.5560876131 117.77823174 -9.9721042023 0.7432165584 1
-36.7783116102 117.77823174 -10.5145968595 0.8944210415 1
-35.0005356073 117.77823174 -10.3991121694 1.1324341443 1
-33.2227596045 117.77823174 -10.4187469581 0.5394039583 1
-31.4449836016 117.77823174 -9.6889118976 1.6281796231 1
-29.6672075987 117.77823174 -9.7335598491 0.5503669062 1
-27.8894315958 117.77823174 -9.9367624419 0.6089562449 1
-26.1116555929 117.77823174 -10.2087655518 0.9412612962 1
-24.33387959 117.77823174 -10.7872228642 0.6269199572 1
-22.5561035872 117.77823174 -10.4857403644 1.3348863995 1
-20.7783275843 117.77823174 -10.7581680451 1.9620154203 1
-19.0005515814 117.77823174 -10.7862706227 1.1833010198 1
-17.2227755785 117.77823174 -10.3288682548 0.6616259354 1
-15.4449995756 117.77823174 -9.713045848 0.6317370101 1
-13.6672235727 117.77823174 -9.4623213962 1.6782890013 1
-11.8894475698 117.77823174 -9.7040503884 1.3881675293 1
-10.111671567 117.77823174 -10.0147259558 0.6674295963 1
-8.3338955641 117.77823174 -10.3867530781 0.62122226 1
-6.5561195612 117.77823174 -9.9155381977 1.0139953579 1
-4.7783435583 117.77823174 -9.4022829322 0.7422471337 1
-3.0005675554 117.77823174 -9.9133902847 0.4880745655 1
-1.2227915525 117.77823174 -9.5843615167 1.4230482044 1
0.5549844503 117.77823174 -9.4315231877 0.9582913823 1
2.3327604532 117.77823174 -9.4208895865 0.7598514286 1
4.1105364561 117.77823174 -10.1647161522 1.269356438 1