TITLE = "B00001"
VARIABLES = "x", "y", "Vx", "Vy", "isValid"
ZONE T="Frame 0", I=102, J=78, F=POINT
-125.6671117544 126.6671117544 0 -0 0
-123.8893357515 126.6671117544 0 -0 0
-122.1115597486 126.6671117544 0 -0 0
-120.3337837458 126.6671117544 0 -0 0
-118.5560077429 126.6671117544 0 -0 0
-116.77823174 126.6671117544 0 -0 0
-115.0004557371 126.6671117544 0 -0 0
-113.2226797342 126.6671117544 0 -0 0
-111.4449037313 126.6671117544 0 -0 0
-109.6671277285 126.6671117544 0 -0 0
-107.8893517256 126.6671117544 0 -0 0
-106.1115757227 126.6671117544 0 -0 0
-104.3337997198 126.6671117544 0 -0 0
-102.5560237169 126.6671117544 0 -0 0
-100.778247714 126.6671117544 0 -0 0
-99.0004717112 126.6671117544 0 -0 0
-97.2226957083 126.6671117544 0 -0 0
-95.4449197054 126.6671117544 0 -0 0
-93.6671437025 126.6671117544 0 -0 0
-91.8893676996 126.6671117544 0 -0 0
-90.1115916967 126.6671117544 0 -0 0
-88.3338156939 126.6671117544 0 -0 0
-86.556039691 126.6671117544 0 -0 0
-84.7782636881 126.6671117544 0 -0 0
-83.0004876852 126.6671117544 0 -0 0
-81.2227116823 126.6671117544 0 -0 0
-79.4449356794 126.6671117544 0 -0 0
-77.6671596766 126.6671117544 0 -0 0
-75.8893836737 126.6671117544 0 -0 0
-74.1116076708 126.6671117544 0 -0 0
-72.3338316679 126.6671117544 0 -0 0
-70.556055665 126.6671117544 0 -0 0
-68.7782796621 126.6671117544 0 -0 0
-67.0005036592 126.6671117544 0 -0 0
-65.2227276564 126.6671117544 0 -0 0
-63.4449516535 126.6671117544 0 -0 0
-61.6671756506 126.6671117544 0 -0 0
-59.8893996477 126.6671117544 0 -0 0
-58.1116236448 126.6671117544 0 -0 0
-56.3338476419 126.6671117544 0 -0 0
-54.5560716391 126.6671117544 0 -0 0
-52.7782956362 126.6671117544 0 -0 0
-51.0005196333 126.6671117544 0 -0 0
-49.2227436304 126.6671117544 0 -0 0
-47.4449676275 126.6671117544 0 -0 0
-45.6671916246 126.6671117544 0 -0 0
-43.8894156218 126.6671117544 0 -0 0
-42.1116396189 126.6671117544 0 -0 0
-40.333863616 126.6671117544 0 -0 0
-38.5560876131 126.6671117544 0 -0 0
-36.7783116102 126.6671117544 0 -0 0
-35.0005356073 126.6671117544 0 -0 0
-33.2227596045 126.6671117544 0 -0 0
-31.4449836016 126.6671117544 0 -0 0
-29.6672075987 126.6671117544 0 -0 0
-27.8894315958 126.6671117544 0 -0 0
-26.1116555929 126.6671117544 0 -0 0
-24.33387959 126.6671117544 0 -0 0
-22.5561035872 126.6671117544 0 -0 0
-20.7783275843 126.6671117544 0 -0 0
-19.0005515814 126.6671117544 0 -0 0
-17.2227755785 126.6671117544 0 -0 0
-15.4449995756 126.6671117544 0 -0 0
-13.6672235727 126.6671117544 0 -0 0
-11.8894475698 126.6671117544 0 -0 0
-10.111671567 126.6671117544 0 -0 0
-8.3338955641 126.6671117544 0 -0 0
-6.5561195612 126.6671117544 0 -0 0
-4.7783435583 126.6671117544 0 -0 0
-3.0005675554 126.6671117544 0 -0 0
-1.2227915525 126.6671117544 0 -0 0
0.5549844503 126.6671117544 0 -0 0
2.3327604532 126.6671117544 0 -0 0
4.1105364561 126.6671117544 0 -0 0
5.888312459 126.6671117544 0 -0 0
7.6660884619 126.6671117544 0 -0 0
9.4438644648 126.6671117544 0 -0 0
11.2216404676 126.6671117544 0 -0 0
12.9994164705 126.6671117544 0 -0 0
14.7771924734 126.6671117544 0 -0 0
16.5549684763 126.6671117544 0 -0 0
18.3327444792 126.6671117544 0 -0 0
20.1105204821 126.6671117544 0 -0 0
21.8882964849 126.6671117544 0 -0 0
23.6660724878 126.6671117544 0 -0 0
25.4438484907 126.6671117544 0 -0 0
27.2216244936 126.6671117544 0 -0 0
28.9994004965 126.6671117544 0 -0 0
30.7771764994 126.6671117544 0 -0 0
32.5549525023 126.6671117544 0 -0 0
34.3327285051 126.6671117544 0 -0 0
36.110504508 126.6671117544 0 -0 0
37.8882805109 126.6671117544 0 -0 0
39.6660565138 126.6671117544 0 -0 0
41.4438325167 126.6671117544 0 -0 0
43.2216085196 126.6671117544 0 -0 0
44.9993845224 126.6671117544 0 -0 0
46.7771605253 126.6671117544 0 -0 0
48.5549365282 126.6671117544 0 -0 0
50.3327125311 126.6671117544 0 -0 0
52.110488534 126.6671117544 0 -0 0
53.8882645369 126.6671117544 0 -0 0
-125.6671117544 124.8893357515 0 -0 0
-123.8893357515 124.8893357515 -10.2991497306 -0.1868962079 1
-122.1115597486 124.8893357515 -10.4904013356 -0.2605356486 1
-120.3337837458 124.8893357515 -10.4161107529 -0.3387424808 1
-118.5560077429 124.8893357515 -10.3422504687 -0.2467924734 1
-116.77823174 124.8893357515 -10.599333459 -0.3316161529 1
-115.0004557371 124.8893357515 -10.4769654238 -0.2734114249 1
-113.2226797342 124.8893357515 -10.5460809682 -0.0721574198 1
-111.4449037313 124.8893357515 -10.5781127946 -0.1527053038 1
-109.6671277285 124.8893357515 -10.6109343371 -0.2808141399 1
-107.8893517256 124.8893357515 -10.5620055951 -0.2880226701 1
-106.1115757227 124.8893357515 -10.5517901209 -0.0860329378 1
-104.3337997198 124.8893357515 -10.6325108391 -0.1731913819 1
-102.5560237169 124.8893357515 -10.6250425456 -0.0562925038 1
-100.778247714 124.8893357515 -10.6262596963 -0.1666421044 1
-99.0004717112 124.8893357515 -10.643178091 -0.0320228041 1
-97.2226957083 124.8893357515 -10.6655235459 0.0691572161 1
-95.4449197054 124.8893357515 -10.6473522019 0.080966011 1
-93.6671437025 124.8893357515 -10.7018970205 0.1479423738 1
-91.8893676996 124.8893357515 -10.7996392332 0.1036670182 1
-90.1115916967 124.8893357515 -10.6376336116 0.0173505545 1
-88.3338156939 124.8893357515 -10.7464082215 -0.0115574905 1
-86.556039691 124.8893357515 -10.7879388352 0.0856820001 1
-84.7782636881 124.8893357515 -10.7999070064 0.1467681814 1
-83.0004876852 124.8893357515 -10.7214401648 0.1339846647 1
-81.2227116823 124.8893357515 -10.6169262984 0.2598414923 1
-79.4449356794 124.8893357515 -10.7906208625 0.2471231177 1
-77.6671596766 124.8893357515 -10.6941358949 0.3868682166 1
-75.8893836737 124.8893357515 -10.6629890085 0.240828435 1
-74.1116076708 124.8893357515 -10.7202552328 0.3482166565 1
-72.3338316679 124.8893357515 -10.8148013511 0.4950315214 1
-70.556055665 124.8893357515 -10.724200233 0.303291848 1
-68.7782796621 124.8893357515 0 -0 0
-67.0005036592 124.8893357515 0 -0 0
-65.2227276564 124.8893357515 0 -0 0
-63.4449516535 124.8893357515 0 -0 0
-61.6671756506 124.8893357515 0 -0 0
-59.8893996477 124.8893357515 -10.5560730594 0.4980236985 1
-58.1116236448 124.8893357515 -10.6716529736 0.4828907565 1
-56.3338476419 124.8893357515 -10.4033356824 0.571108765 1
-54.5560716391 124.8893357515 -10.7557630985 0.840394586 1
-52.7782956362 124.8893357515 -10.6004510898 0.6648500871 1
-51.0005196333 124.8893357515 -10.6741259374 0.7412364959 1
-49.2227436304 124.8893357515 -10.3923548352 0.7642725495 1
-47.4449676275 124.8893357515 -10.4116001356 0.8030581304 1
-45.6671916246 124.8893357515 -10.5249168654 0.822028319 1
-43.8894156218 124.8893357515 -10.6033171217 0.8075148709 1
-42.1116396189 124.8893357515 -10.4764986107 0.7040420263 1
-40.333863616 124.8893357515 -10.4548963338 0.6534214 1
-38.5560876131 124.8893357515 -10.5731532635 0.7530883665 1
-36.7783116102 124.8893357515 -10.2903261041 0.7300900804 1
-35.0005356073 124.8893357515 -9.9444892009 0.8265580885 1
-33.2227596045 124.8893357515 -10.4302003461 0.8210128931 1
-31.4449836016 124.8893357515 -10.0857058886 0.7039697579 1
-29.6672075987 124.8893357515 -9.7706113482 0.7297726815 1
-27.8894315958 124.8893357515 -10.1845535606 0.8602132002 1
-26.1116555929 124.8893357515 -10.0871020321 0.9536352439 1
-24.33387959 124.8893357515 -10.1036352344 0.6735372317 1
-22.5561035872 124.8893357515 -10.2459824403 1.1184140002 1
-20.7783275843 124.8893357515 -10.0195587601 0.9958911363 1
-19.0005515814 124.8893357515 -10.1030825048 1.0323346865 1
-17.2227755785 124.8893357515 -10.1956869096 0.9571711562 1
-15.4449995756 124.8893357515 -10.1093307837 1.1728893696 1
-13.6672235727 124.8893357515 -10.0740513127 1.0358312204 1
-11.8894475698 124.8893357515 -10.005167027 0.9585409877 1
-10.111671567 124.8893357515 -9.9692897203 0.9734876878 1
-8.3338955641 124.8893357515 -9.9756754657 1.0043717232 1
-6.5561195612 124.8893357515 -9.9245128941 0.8132480086 1
-4.7783435583 124.8893357515 -9.9010691398 0.821298655 1
-3.0005675554 124.8893357515 -10.0403949481 0.8782865456 1
-1.2227915525 124.8893357515 -9.5194809408 0.8110309149 1
0.5549844503 124.8893357515 -9.999834475 1.0980178659 1
2.3327604532 124.8893357515 -9.5562245724 0.7654128228 1
4.1105364561 124.8893357515 -9.897484273 0.8232184418 1
5.888312459 124.8893357515 -9.7887196867 0.995168453 1
7.6660884619 124.8893357515 -9.8729966329 0.8578058372 1
9.4438644648 124.8893357515 -9.728377651 0.8918976913 1
11.2216404676 124.8893357515 -9.2416548388 0.5403579896 1
12.9994164705 124.8893357515 0 -0 0
14.7771924734 124.8893357515 0 -0 0
16.5549684763 124.8893357515 0 -0 0
18.3327444792 124.8893357515 0 -0 0
20.1105204821 124.8893357515 0 -0 0
21.8882964849 124.8893357515 0 -0 0
23.6660724878 124.8893357515 0 -0 0
25.4438484907 124.8893357515 0 -0 0
27.2216244936 124.8893357515 0 -0 0
28.9994004965 124.8893357515 0 -0 0
30.7771764994 124.8893357515 0 -0 0
32.5549525023 124.8893357515 0 -0 0
34.3327285051 124.8893357515 0 -0 0
36.110504508 124.8893357515 -9.4709975327 0.3699318331 1
37.8882805109 124.8893357515 -9.2142088065 0.5919267405 1
39.6660565138 124.8893357515 -9.2936908949 0.4386317563 1
41.4438325167 124.8893357515 -9.3911510151 0.4200223723 1
43.2216085196 124.8893357515 -9.3669368759 0.3881369619 1
44.9993845224 124.8893357515 -9.3677530829 0.4748376937 1
46.7771605253 124.8893357515 -9.507627325 0.5733167748 1
48.5549365282 124.8893357515 -9.2809594986 0.1508013915 1
50.3327125311 124.8893357515 -9.3371152519 0.3158851514 1
52.110488534 124.8893357515 -9.2636838344 0.5316419377 1
53.8882645369 124.8893357515 0 -0 0
-125.6671117544 123.1115597486 0 -0 0
-123.8893357515 123.1115597486 -10.3677046697 -0.2544543699 1
-122.1115597486 123.1115597486 -10.5535485457 -0.2875193425 1
-120.3337837458 123.1115597486 -10.4682635123 -0.2655736904 1
-118.5560077429 123.1115597486 -10.4734858048 -0.2377238505 1
-116.77823174 123.1115597486 -10.5554115022 -0.2557097579 1
-115.0004557371 123.1115597486 -10.6866919444 -0.2594603049 1
-113.2226797342 123.1115597486 -10.5473102904 -0.184045782 1
-111.4449037313 123.1115597486 -10.4954861616 -0.2293799245 1
-109.6671277285 123.1115597486 -10.5076039707 -0.2910078441 1
-107.8893517256 123.1115597486 -10.4827010675 -0.262120428 1
-106.1115757227 123.1115597486 -10.5166703115 -0.1876083194 1
-104.3337997198 123.1115597486 -10.7776453201 -0.2889389788 1
-102.5560237169 123.1115597486 -10.6497686041 -0.0403063033 1
-100.778247714 123.1115597486 -10.6067766935 -0.0143152668 1
-99.0004717112 123.1115597486 -10.5509359675 -0.0125313537 1
-97.2226957083 123.1115597486 -10.5658510753 0.0628191499 1
-95.4449197054 123.1115597486 -10.5694230546 0.0109351684 1
-93.6671437025 123.1115597486 -10.6139879534 -0.0883217516 1
-91.8893676996 123.1115597486 -10.6556109274 -0.1591414468 1
-90.1115916967 123.1115597486 -10.60103747 -0.0972128193 1
-88.3338156939 123.1115597486 -10.7991530889 -0.0415565313 1
-86.556039691 123.1115597486 -10.7466802904 0.0654945937 1
-84.7782636881 123.1115597486 -10.6266341492 0.0812922085 1
-83.0004876852 123.1115597486 -10.7473754983 0.1709336345 1
-81.2227116823 123.1115597486 -10.7530882309 0.3490483239 1
-79.4449356794 123.1115597486 -10.7874333597 0.2478376568 1
-77.6671596766 123.1115597486 -10.6799940357 0.3801722768 1
-75.8893836737 123.1115597486 -10.8776772081 0.1500284336 1
-74.1116076708 123.1115597486 -10.7592412856 0.3048504274 1
-72.3338316679 123.1115597486 -10.7506052435 0.3940804609 1
-70.556055665 123.1115597486 -10.5537819522 0.346987558 1
-68.7782796621 123.1115597486 0 -0 0
-67.0005036592 123.1115597486 0 -0 0
-65.2227276564 123.1115597486 0 -0 0
-63.4449516535 123.1115597486 0 -0 0
-61.6671756506 123.1115597486 0 -0 0
-59.8893996477 123.1115597486 -10.6959759403 0.4877273195 1
-58.1116236448 123.1115597486 -10.702846398 0.5441024285 1
-56.3338476419 123.1115597486 -10.5161748596 0.5726291742 1
-54.5560716391 123.1115597486 -10.6011269664 0.7157468991 1
-52.7782956362 123.1115597486 -10.5426464553 0.6721190721 1
-51.0005196333 123.1115597486 -10.5885273088 0.801390097 1
-49.2227436304 123.1115597486 -10.374559376 0.8063428263 1
-47.4449676275 123.1115597486 -10.5594345432 0.8132691298 1
-45.6671916246 123.1115597486 -10.6603556672 0.7185207945 1
-43.8894156218 123.1115597486 -10.3213176247 0.719639186 1
-42.1116396189 123.1115597486 -10.3620019607 0.6467600953 1
-40.333863616 123.1115597486 -10.577807075 0.6858104513 1
-38.5560876131 123.1115597486 -10.5217622972 0.7111125531 1
-36.7783116102 123.1115597486 -10.4686551485 0.8470903468 1
-35.0005356073 123.1115597486 -10.3008050556 0.9012995539 1
-33.2227596045 123.1115597486 -10.2272569348 0.7391931146 1
-31.4449836016 123.1115597486 -10.239249449 0.8023128046 1
-29.6672075987 123.1115597486 -9.9714963429 1.0281568168 1
-27.8894315958 123.1115597486 -10.3443618672 1.0050978073 1
-26.1116555929 123.1115597486 -10.5132329347 0.9908531168 1
-24.33387959 123.1115597486 -10.1547047297 0.9876511156 1
-22.5561035872 123.1115597486 -10.2085872751 0.9605405157 1
-20.7783275843 123.1115597486 -10.1847504526 0.9378061991 1
-19.0005515814 123.1115597486 -10.0186437491 1.1168193538 1
-17.2227755785 123.1115597486 -10.1601475412 0.8967823139 1
-15.4449995756 123.1115597486 -10.0339254341 1.0200977577 1
-13.6672235727 123.1115597486 -10.056542242 1.1368841725 1
-11.8894475698 123.1115597486 -9.8846934511 1.1568781996 1
-10.111671567 123.1115597486 -9.9198025209 0.9357735575 1
-8.3338955641 123.1115597486 -10.0700089405 0.9884112978 1
-6.5561195612 123.1115597486 -9.8944829225 1.0012403346 1
-4.7783435583 123.1115597486 -9.7236150119 0.9072857874 1
-3.0005675554 123.1115597486 -9.9364903729 0.8944770663 1
-1.2227915525 123.1115597486 -9.5607072668 0.8617216616 1
0.5549844503 123.1115597486 -9.7645485058 0.9745509047 1
2.3327604532 123.1115597486 -9.7355230416 0.816238709 1
4.1105364561 123.1115597486 -9.7846157409 1.0582919466 1
5.888312459 123.1115597486 -9.9144241468 0.9804831719 1
7.6660884619 123.1115597486 -9.762444983 0.916307917 1
9.4438644648 123.1115597486 -9.5808876254 0.8799356953 1
11.2216404676 123.1115597486 -9.5713229688 0.8203173273 1
12.9994164705 123.1115597486 0 -0 0
14.7771924734 123.1115597486 0 -0 0
16.5549684763 123.1115597486 0 -0 0
18.3327444792 123.1115597486 0 -0 0
20.1105204821 123.1115597486 0 -0 0
21.8882964849 123.1115597486 0 -0 0
23.6660724878 123.1115597486 0 -0 0
25.4438484907 123.1115597486 0 -0 0
27.2216244936 123.1115597486 0 -0 0
28.9994004965 123.1115597486 0 -0 0
30.7771764994 123.1115597486 0 -0 0
32.5549525023 123.1115597486 0 -0 0
34.3327285051 123.1115597486 0 -0 0
36.110504508 123.1115597486 -9.4635177837 0.6919162519 1
37.8882805109 123.1115597486 -9.4514594002 0.580464895 1
39.6660565138 123.1115597486 -9.216492754 0.5687427493 1
41.4438325167 123.1115597486 -9.4212890983 0.5475591812 1
43.2216085196 123.1115597486 -9.5401030535 0.5089000139 1
44.9993845224 123.1115597486 -9.4622533789 0.5332660732 1
46.7771605253 123.1115597486 -9.2321159572 0.4461978693 1
48.5549365282 123.1115597486 -9.4427388734 0.1754791778 1
50.3327125311 123.1115597486 -9.5282881001 0.4348215824 1
52.110488534 123.1115597486 -9.4841921623 0.5041064091 1
53.8882645369 123.1115597486 0 -0 0
-125.6671117544 121.3337837458 0 -0 0
-123.8893357515 121.3337837458 -10.4213001107 -0.1164896225 1
-122.1115597486 121.3337837458 -10.4075455918 -0.2880896806 1
-120.3337837458 121.3337837458 -10.4292574123 -0.3303736524 1
-118.5560077429 121.3337837458 -10.445434777 -0.3122681778 1
-116.77823174 121.3337837458 -10.5204907327 -0.2300672566 1
-115.0004557371 121.3337837458 -10.7002230803 -0.1833709122 1
-113.2226797342 121.3337837458 -10.3889647125 -0.1573264603 1
-111.4449037313 121.3337837458 -10.4631786863 -0.2006017611 1
-109.6671277285 121.3337837458 -10.6463076003 -0.1149584514 1
-107.8893517256 121.3337837458 -10.426870365 -0.2304527399 1
-106.1115757227 121.3337837458 -10.5590966049 -0.210413987 1
-104.3337997198 121.3337837458 -10.681642201 -0.261810681 1
-102.5560237169 121.3337837458 -10.6310101639 -0.1760121622 1
-100.778247714 121.3337837458 -10.4867069252 -0.0499948229 1
-99.0004717112 121.3337837458 -10.3358532679 -0.016170205 1
-97.2226957083 121.3337837458 -10.5353013088 -0.0870675159 1
-95.4449197054 121.3337837458 -10.5940381375 -0.136865732 1
-93.6671437025 121.3337837458 -10.7165300357 -0.1116217356 1
-91.8893676996 121.3337837458 -10.6908352686 -0.1417089849 1
-90.1115916967 121.3337837458 -10.6585385328 0.0636836178 1
-88.3338156939 121.3337837458 -10.8625301257 0.00115615 1
-86.556039691 121.3337837458 -10.885209223 0.0676622686 1
-84.7782636881 121.3337837458 -10.7713655385 -0.0039219458 1
-83.0004876852 121.3337837458 -10.8622494651 0.156899171 1
-81.2227116823 121.3337837458 -10.7616376406 0.2732732425 1
-79.4449356794 121.3337837458 -10.8367114955 0.270200295 1
-77.6671596766 121.3337837458 -10.7518567608 0.3591997858 1
-75.8893836737 121.3337837458 -10.8469298336 0.2655431945 1
-74.1116076708 121.3337837458 -10.7205502129 0.1543351334 1
-72.3338316679 121.3337837458 -10.8550697079 0.3476848243 1
-70.556055665 121.3337837458 -10.7241501151 0.4291049119 1
-68.7782796621 121.3337837458 0 -0 0
-67.0005036592 121.3337837458 0 -0 0
-65.2227276564 121.3337837458 0 -0 0
-63.4449516535 121.3337837458 0 -0 0
-61.6671756506 121.3337837458 0 -0 0
-59.8893996477 121.3337837458 -10.5629785997 0.6765315119 1
-58.1116236448 121.3337837458 -10.7863744385 0.5971846972 1
-56.3338476419 121.3337837458 -10.7261670054 0.5444577738 1
-54.5560716391 121.3337837458 -10.7470031934 0.5270384232 1
-52.7782956362 121.3337837458 -10.5739859378 0.6528936399 1
-51.0005196333 121.3337837458 -10.5822375036 0.6405811761 1
-49.2227436304 121.3337837458 -10.6227335392 0.8539567771 1
-47.4449676275 121.3337837458 -10.2556444689 0.9111041503 1
-45.6671916246 121.3337837458 -10.4691233935 0.5908058431 1
-43.8894156218 121.3337837458 -10.4754217904 0.8441567451 1
-42.1116396189 121.3337837458 -10.5888824304 0.8287560299 1
-40.333863616 121.3337837458 -10.6432604277 0.8228575924 1
-38.5560876131 121.3337837458 -10.5357888851 0.7550347337 1
-36.7783116102 121.3337837458 -10.4962708658 0.8461880443 1
-35.0005356073 121.3337837458 -10.4278204585 0.6884496994 1
-33.2227596045 121.3337837458 -10.2674064405 0.7925773889 1
-31.4449836016 121.3337837458 -10.0232689218 0.9802411737 1
-29.6672075987 121.3337837458 -10.1457937547 0.8170186699 1
-27.8894315958 121.3337837458 -10.2335610594 1.1368917797 1
-26.1116555929 121.3337837458 -10.5059780006 1.0555877241 1
-24.33387959 121.3337837458 -10.4957052487 1.0171943163 1
-22.5561035872 121.3337837458 -10.2082944429 1.0417866672 1
-20.7783275843 121.3337837458 -10.2205890969 0.8328293679 1
-19.0005515814 121.3337837458 -10.1496807612 0.9451846382 1
-17.2227755785 121.3337837458 -10.0397820769 0.9611194678 1
-15.4449995756 121.3337837458 -10.0846677307 1.0191116867 1
-13.6672235727 121.3337837458 -10.2300628252 0.8777797276 1
-11.8894475698 121.3337837458 -10.0223610706 1.0861416075 1
-10.111671567 121.3337837458 -9.9080663243 0.8548040393 1
-8.3338955641 121.3337837458 -10.1218158859 0.989182667 1
-6.5561195612 121.3337837458 -9.9292289951 1.063996356 1
-4.7783435583 121.3337837458 -9.77950514 0.8587232646 1
-3.0005675554 121.3337837458 -9.7875827248 0.9905756781 1
-1.2227915525 121.3337837458 -9.5294637244 1.1031063613 1
0.5549844503 121.3337837458 -9.768222153 1.0095849766 1
2.3327604532 121.3337837458 -10.005366783 1.0417848772 1
4.1105364561 121.3337837458 -9.9465769724 0.8859644396 1
5.888312459 121.3337837458 -9.8885374994 0.8850917604 1
7.6660884619 121.3337837458 -9.6448982965 0.9808444688 1
9.4438644648 121.3337837458 -9.5132949514 0.8693450523 1
11.2216404676 121.3337837458 -9.4240670658 0.6201139369 1
12.9994164705 121.3337837458 0 -0 0
14.7771924734 121.3337837458 0 -0 0
16.5549684763 121.3337837458 0 -0 0
18.3327444792 121.3337837458 0 -0 0
20.1105204821 121.3337837458 0 -0 0
21.8882964849 121.3337837458 0 -0 0
23.6660724878 121.3337837458 0 -0 0
25.4438484907 121.3337837458 0 -0 0
27.2216244936 121.3337837458 0 -0 0
28.9994004965 121.3337837458 0 -0 0
30.7771764994 121.3337837458 0 -0 0
32.5549525023 121.3337837458 0 -0 0
34.3327285051 121.3337837458 0 -0 0
36.110504508 121.3337837458 -9.5690454651 0.5031798531 1
37.8882805109 121.3337837458 -9.5804136526 0.4120583137 1
39.6660565138 121.3337837458 -9.3532145758 0.4266020116 1
41.4438325167 121.3337837458 -9.2298434652 0.5216896723 1
43.2216085196 121.3337837458 -9.5659166718 0.5406995973 1
44.9993845224 121.3337837458 -9.3770521142 0.3953507277 1
46.7771605253 121.3337837458 -9.2831668372 0.353743796 1
48.5549365282 121.3337837458 -9.2608650566 0.3642698226 1
50.3327125311 121.3337837458 -9.5226211896 0.3203978718 1
52.110488534 121.3337837458 -9.3423676152 0.3165041754 1
53.8882645369 121.3337837458 0 -0 0
-125.6671117544 119.5560077429 0 -0 0
-123.8893357515 119.5560077429 -10.3952788607 -0.2861902095 1
-122.1115597486 119.5560077429 -10.228116816 -0.3212566119 1
-120.3337837458 119.5560077429 -10.4525551086 -0.3984742854 1
-118.5560077429 119.5560077429 -10.3762225766 -0.3416603534 1
-116.77823174 119.5560077429 -10.5180743306 -0.2371738505 1
-115.0004557371 119.5560077429 -10.545246146 -0.1418829658 1
-113.2226797342 119.5560077429 -10.1375250056 -0.1355550799 1
-111.4449037313 119.5560077429 -10.4210516687 -0.1531337341 1
-109.6671277285 119.5560077429 -10.6556989918 -0.2456558023 1
-107.8893517256 119.5560077429 -10.4818168433 -0.2199179426 1
-106.1115757227 119.5560077429 -10.5258232847 -0.2334874501 1
-104.3337997198 119.5560077429 -10.4638187644 -0.2304019059 1
-102.5560237169 119.5560077429 -10.6245664249 -0.1357546904 1
-100.778247714 119.5560077429 -10.6378569946 -0.1168025018 1
-99.0004717112 119.5560077429 -10.4960567905 -0.0892480783 1
-97.2226957083 119.5560077429 -10.6801644368 -0.1548032442 1
-95.4449197054 119.5560077429 -10.6696017167 -0.1650318856 1
-93.6671437025 119.5560077429 -10.8575168968 -0.036576237 1
-91.8893676996 119.5560077429 -10.886888891 -0.077078859 1
-90.1115916967 119.5560077429 -10.8435060603 0.1251350282 1
-88.3338156939 119.5560077429 -10.6997469596 -0.0321532563 1
-86.556039691 119.5560077429 -10.9083773286 0.1645622086 1
-84.7782636881 119.5560077429 -10.7622318965 0.0786295236 1
-83.0004876852 119.5560077429 -10.8879027059 -0.0174115561 1
-81.2227116823 119.5560077429 -10.9434011978 0.2509320835 1
-79.4449356794 119.5560077429 -10.9177866194 0.3586513521 1
-77.6671596766 119.5560077429 -10.7914191702 0.2093623375 1
-75.8893836737 119.5560077429 -10.7759563446 0.2747306462 1
-74.1116076708 119.5560077429 -10.7474291961 0.1769329009 1
-72.3338316679 119.5560077429 -10.917351309 0.3144577961 1
-70.556055665 119.5560077429 -11.0880860491 0.3818068386 1
-68.7782796621 119.5560077429 0 -0 0
-67.0005036592 119.5560077429 0 -0 0
-65.2227276564 119.5560077429 0 -0 0
-63.4449516535 119.5560077429 0 -0 0
-61.6671756506 119.5560077429 0 -0 0
-59.8893996477 119.5560077429 -10.5371936202 0.6278766287 1
-58.1116236448 119.5560077429 -10.7307363323 0.6165896592 1
-56.3338476419 119.5560077429 -10.7975528937 0.636947847 1
-54.5560716391 119.5560077429 -10.7599844635 0.5177792177 1
-52.7782956362 119.5560077429 -10.7408265116 0.8389337367 1
-51.0005196333 119.5560077429 -10.5469100626 0.8045652493 1
-49.2227436304 119.5560077429 -10.7553893617 0.8572394147 1
-47.4449676275 119.5560077429 -10.4226074737 0.7935245291 1
-45.6671916246 119.5560077429 -10.5818609028 0.7984351057 1
-43.8894156218 119.5560077429 -10.3607282483 0.8780162665 1
-42.1116396189 119.5560077429 -10.3413461974 0.9013970155 1
-40.333863616 119.5560077429 -10.2344195087 0.8295079785 1
-38.5560876131 119.5560077429 -10.3806530052 0.6393695295 1
-36.7783116102 119.5560077429 -10.3718057515 0.7959196311 1
-35.0005356073 119.5560077429 -10.5573109733 0.9793356494 1
-33.2227596045 119.5560077429 -10.4397771742 0.8278667045 1
-31.4449836016 119.5560077429 -9.9617398062 0.9770724651 1
-29.6672075987 119.5560077429 -10.1872993094 1.2572785442 1
-27.8894315958 119.5560077429 -10.5896800221 1.1192652002 1
-26.1116555929 119.5560077429 -10.3161425863 1.0556911819 1
-24.33387959 119.5560077429 -10.5738642227 1.0405646837 1
-22.5561035872 119.5560077429 -10.1905161671 0.9149506149 1
-20.7783275843 119.5560077429 -10.2600591461 0.8613392436 1
-19.0005515814 119.5560077429 -10.0752197774 0.7708339762 1
-17.2227755785 119.5560077429 -10.1058977027 0.8515157635 1
-15.4449995756 119.5560077429 -9.9628681764 0.9938281553 1
-13.6672235727 119.5560077429 -10.0761849063 0.9071548542 1
-11.8894475698 119.5560077429 -10.0257476134 0.784874078 1
-10.111671567 119.5560077429 -9.8760387937 1.0054046904 1
-8.3338955641 119.5560077429 -10.0271487686 1.0533647237 1
-6.5561195612 119.5560077429 -9.746769514 0.7980828479 1
-4.7783435583 119.5560077429 -9.740325059 0.864563082 1
-3.0005675554 119.5560077429 -9.8612955189 1.1348761424 1
-1.2227915525 119.5560077429 -9.4841706831 1.0990847522 1
0.5549844503 119.5560077429 -9.6922039323 0.8749980013 1
2.3327604532 119.5560077429 -9.9424014295 1.1838986766 1
4.1105364561 119.5560077429 -10.0404321786 0.9440939459 1
5.888312459 119.5560077429 -9.7646687889 1.1230673642 1
7.6660884619 119.5560077429 -9.651155883 0.8315998667 1
9.4438644648 119.5560077429 -9.5475964059 0.9713922197 1
11.2216404676 119.5560077429 -9.3262990781 0.7117219339 1
12.9994164705 119.5560077429 0 -0 0
14.7771924734 119.5560077429 0 -0 0
16.5549684763 119.5560077429 0 -0 0
18.3327444792 119.5560077429 0 -0 0
20.1105204821 119.5560077429 0 -0 0
21.8882964849 119.5560077429 0 -0 0
23.6660724878 119.5560077429 0 -0 0
25.4438484907 119.5560077429 0 -0 0
27.2216244936 119.5560077429 0 -0 0
28.9994004965 119.5560077429 0 -0 0
30.7771764994 119.5560077429 0 -0 0
32.5549525023 119.5560077429 0 -0 0
34.3327285051 119.5560077429 0 -0 0
36.110504508 119.5560077429 -9.3337623597 0.6070175744 1
37.8882805109 119.5560077429 -9.4783448271 0.6446116006 1
39.6660565138 119.5560077429 -9.4878378866 0.5721488919 1
41.4438325167 119.5560077429 -9.265817428 0.5514833735 1
43.2216085196 119.5560077429 -9.4643139435 0.4492709511 1
44.9993845224 119.5560077429 -9.2237075937 0.3526506649 1
46.7771605253 119.5560077429 -9.3715377056 0.2704073448 1
48.5549365282 119.5560077429 -9.2855903991 0.3904603773 1
50.3327125311 119.5560077429 -9.4044816791 0.2784885095 1
52.110488534 119.5560077429 -9.2934811154 0.2717747152 1
53.8882645369 119.5560077429 0 -0 0
-125.6671117544 117.77823174 0 -0 0
-123.8893357515 117.77823174 -10.1381987343 -0.375421675 1
-122.1115597486 117.77823174 -10.2826874095 -0.3589411861 1
-120.3337837458 117.77823174 -10.4173357793 -0.3025717825 1
-118.5560077429 117.77823174 -10.3885859638 -0.3692671883 1
-116.77823174 117.77823174 -10.6235833967 -0.2679066147 1
-115.0004557371 117.77823174 -10.5423851259 -0.3918159789 1
-113.2226797342 117.77823174 -10.2420231207 -0.3043797883 1
-111.4449037313 117.77823174 -10.450398604 -0.20905579 1
-109.6671277285 117.77823174 -10.644413141 -0.4262208465 1
-107.8893517256 117.77823174 -10.5127009683 -0.4076100306 1
-106.1115757227 117.77823174 -10.5248495642 -0.3180968977 1
-104.3337997198 117.77823174 -10.581140636 -0.2455577143 1
-102.5560237169 117.77823174 -10.5960371286 -0.2216457149 1
-100.778247714 117.77823174 -10.7491804612 -0.0860299285 1
-99.0004717112 117.77823174 -10.7444221179 -0.1823924707 1
-97.2226957083 117.77823174 -10.7508959277 -0.2030719953 1
-95.4449197054 117.77823174 -10.7070792186 -0.0921507645 1
-93.6671437025 117.77823174 -10.9129445075 -0.1173251606 1
-91.8893676996 117.77823174 -10.8654176367 -0.0228131265 1
-90.1115916967 117.77823174 -10.7687193097 -0.0259349027 1
-88.3338156939 117.77823174 -10.6649794079 -0.1496738938 1
-86.556039691 117.77823174 -10.7509209867 -0.0000098804 1
-84.7782636881 117.77823174 -10.9157761728 0.0098521902 1
-83.0004876852 117.77823174 -10.8330800906 -0.0836948618 1
-81.2227116823 117.77823174 -10.8797485122 0.1832646576 1
-79.4449356794 117.77823174 -10.9467877407 0.3897313846 1
-77.6671596766 117.77823174 -10.8836448264 0.3173329566 1
-75.8893836737 117.77823174 -10.6725185825 0.2878257557 1
-74.1116076708 117.77823174 -10.7963708256 0.3540224653 1
-72.3338316679 117.77823174 -10.8549143422 0.5359498457 1
-70.556055665 117.77823174 -11.0352953595 0.4475737866 1
-68.7782796621 117.77823174 0 -0 0
-67.0005036592 117.77823174 0 -0 0
-65.2227276564 117.77823174 0 -0 0
-63.4449516535 117.77823174 0 -0 0
-61.6671756506 117.77823174 0 -0 0
-59.8893996477 117.77823174 -10.76678762 0.6324213442 1
-58.1116236448 117.77823174 -10.6180131424 0.5847966985 1
-56.3338476419 117.77823174 -10.7496186354 0.7168284628 1
-54.5560716391 117.77823174 -10.6735882432 0.489906601 1
-52.7782956362 117.77823174 -10.8372248467 0.8592048445 1
-51.0005196333 117.77823174 -10.6437293887 0.6648959987 1
-49.2227436304 117.77823174 -10.585558893 0.8360592026 1
-47.4449676275 117.77823174 -10.3352439766 0.7898570571 1
-45.6671916246 117.77823174 -10.7639996289 0.9242538526 1
-43.8894156218 117.77823174 -10.4614410247 0.8634612026 1
-42.1116396189 117.77823174 -10.3865647777 0.7620102601 1
-40.333863616 117.77823174 -10.4804636581 0.791404002 1
-38.5560876131 117.77823174 -10.4401910055 0.7426549239 1
-36.7783116102 117.77823174 -10.3662362132 0.9259798797 1
-35.0005356073 117.77823174 -10.3538613704 1.1308262524 1
-33.2227596045 117.77823174 -10.1832440496 0.8724044859 1
-31.4449836016 117.77823174 -10.1998373935 0.77291244 1
-29.6672075987 117.77823174 -10.3139352477 1.1358673147 1
-27.8894315958 117.77823174 -10.3992202811 1.1145498152 1
-26.1116555929 117.77823174 -10.1798703943 0.7635909451 1
-24.33387959 117.77823174 -10.0730532492 1.016820311 1
-22.5561035872 117.77823174 -10.030448679 1.254025709 1
-20.7783275843 117.77823174 -9.9354443393 0.7887136514 1
-19.0005515814 117.77823174 -10.3175179666 1.0513464014 1
-17.2227755785 117.77823174 -10.1983539016 1.0957427786 1
-15.4449995756 117.77823174 -9.9065527616 0.8209754836 1
-13.6672235727 117.77823174 -10.1533493966 0.9932538571 1
-11.8894475698 117.77823174 -9.9560478367 0.7973581063 1
-10.111671567 117.77823174 -9.8071602357 1.0836722235 1
-8.3338955641 117.77823174 -9.881684941 1.0469796943 1