TITLE = "B00007"
VARIABLES = "x", "y", "Vx", "Vy", "isValid"
ZONE T="Frame 0", I=51, J=39, F=POINT
-124.778223753 125.778223753 -9.9015509882 0.1043613646 1
-121.2226717472 125.778223753 -10.0703855412 -0.0130421277 1
-117.6671197414 125.778223753 -10.2812404321 -0.228971821 1
-114.1115677357 125.778223753 -10.5261075252 -0.4563241156 1
-110.5560157299 125.778223753 -10.7633867577 -0.0289796421 1
-107.0004637241 125.778223753 -10.1678105788 -0.2975332038 1
-103.4449117184 125.778223753 0 -0 0
-99.8893597126 125.778223753 -9.9944754321 -0.8834065437 1
-96.3338077068 125.778223753 -9.6803102221 0.3523751503 1
-92.7782557011 125.778223753 -9.8944585795 0.1063231252 1
-89.2227036953 125.778223753 -9.6005854195 -0.2988663418 1
-85.6671516895 125.778223753 -9.9342336324 -0.3963228821 1
-82.1115996838 125.778223753 -9.8355642372 0.1516254741 1
-78.556047678 125.778223753 -9.8995620208 -0.2419380558 1
-75.0004956722 125.778223753 -9.9284342673 -0.2274353472 1
-71.4449436665 125.778223753 0 -0 0
-67.8893916607 125.778223753 0 -0 0
-64.3338396549 125.778223753 0 -0 0
-60.7782876492 125.778223753 0 -0 0
-57.2227356434 125.778223753 -10.510289578 -0.8866685076 1
-53.6671836376 125.778223753 -9.9508513192 0.4405040204 1
-50.1116316319 125.778223753 -10.1879723221 -0.5950463604 1
-46.5560796261 125.778223753 -10.708081578 -0.4901294022 1
-43.0005276203 125.778223753 0 -0 0
-39.4449756145 125.778223753 -9.6709625047 -0.4104403982 1
-35.8894236088 125.778223753 -9.7940579665 -0.706319709 1
-32.333871603 125.778223753 -10.6580752996 -0.3769429791 1
-28.7783195972 125.778223753 -9.747535603 1.336282543 1
-25.2227675915 125.778223753 -9.6418167573 -0.9493345851 1
-21.6672155857 125.778223753 -10.1165971733 -0.0018085427 1
-18.1116635799 125.778223753 -10.1359484375 0.3339073944 1
-14.5561115742 125.778223753 -10.3184064866 0.1318575148 1
-11.0005595684 125.778223753 -10.1486841296 -0.9366719221 1
-7.4450075626 125.778223753 -10.3058139887 0.3177092665 1
-3.8894555569 125.778223753 -10.4064208014 0.41819866 1
-0.3339035511 125.778223753 -10.5673116562 0.7379856743 1
3.2216484547 125.778223753 -10.6531479872 -0.0730404973 1
6.7772004604 125.778223753 -10.276897352 0.379166785 1
10.3327524662 125.778223753 0 -0 0
13.888304472 125.778223753 0 -0 0
17.4438564777 125.778223753 0 -0 0
20.9994084835 125.778223753 0 -0 0
24.5549604893 125.778223753 0 -0 0
28.110512495 125.778223753 0 -0 0
31.6660645008 125.778223753 0 -0 0
35.2216165066 125.778223753 0 -0 0
38.7771685123 125.778223753 0 -0 0
42.3327205181 125.778223753 0 -0 0
45.8882725239 125.778223753 -10.1780160294 0.2610043635 1
49.4438245296 125.778223753 0 -0 0
52.9993765354 125.778223753 0 -0 0
-124.778223753 122.2226717472 -10.0696523869 0.4488665617 1
-121.2226717472 122.2226717472 -10.3151344991 0.0257305657 1
-117.6671197414 122.2226717472 -9.718823734 -0.4160221081 1
-114.1115677357 122.2226717472 -10.1862138973 0.099018789 1
-110.5560157299 122.2226717472 -10.1523642205 0.0421606682 1
-107.0004637241 122.2226717472 -10.1296994426 0.2693454256 1
-103.4449117184 122.2226717472 -10.0554632737 -0.2773456855 1
-99.8893597126 122.2226717472 -9.8260604381 -0.3808249739 1
-96.3338077068 122.2226717472 -10.3267060224 0.1604376451 1
-92.7782557011 122.2226717472 -10.0208160051 0.0053454395 1
-89.2227036953 122.2226717472 -10.5132300708 0.4720167679 1
-85.6671516895 122.2226717472 -10.0647594411 -0.1414873247 1
-82.1115996838 122.2226717472 -10.1253291556 0.3148267673 1
-78.556047678 122.2226717472 -10.176668572 -0.2786645041 1
-75.0004956722 122.2226717472 -9.9987268679 -0.2976778299 1
-71.4449436665 122.2226717472 0 -0 0
-67.8893916607 122.2226717472 0 -0 0
-64.3338396549 122.2226717472 0 -0 0
-60.7782876492 122.2226717472 0 -0 0
-57.2227356434 122.2226717472 -10.3235127918 -0.5676146475 1
-53.6671836376 122.2226717472 -10.7538865385 -0.4481835254 1
-50.1116316319 122.2226717472 -9.9951570365 -0.3815466726 1
-46.5560796261 122.2226717472 -9.9751671263 -0.1696793988 1
-43.0005276203 122.2226717472 0 -0 0
-39.4449756145 122.2226717472 -10.1064074741 0.3663680875 1
-35.8894236088 122.2226717472 -10.9133511791 -0.3794288304 1
-32.333871603 122.2226717472 -10.2267392878 0.4989029109 1
-28.7783195972 122.2226717472 -9.7884533455 0.184709062 1
-25.2227675915 122.2226717472 -9.8986484418 0.3639581291 1
-21.6672155857 122.2226717472 -9.9795946909 -0.5608157869 1
-18.1116635799 122.2226717472 -10.5104828901 0.031475517 1
-14.5561115742 122.2226717472 0 -0 0
-11.0005595684 122.2226717472 -10.0695464232 0.5298772482 1
-7.4450075626 122.2226717472 -11.174443607 0.4096871967 1
-3.8894555569 122.2226717472 -10.6722314782 0.1839444049 1
-0.3339035511 122.2226717472 -10.3142037368 0.5118691456 1
3.2216484547 122.2226717472 -10.2954438648 -0.2269943091 1
6.7772004604 122.2226717472 -10.449261642 0.3584609038 1
10.3327524662 122.2226717472 -11.1195522585 0.1905657047 1
13.888304472 122.2226717472 0 -0 0
17.4438564777 122.2226717472 0 -0 0
20.9994084835 122.2226717472 0 -0 0
24.5549604893 122.2226717472 0 -0 0
28.110512495 122.2226717472 0 -0 0
31.6660645008 122.2226717472 0 -0 0
35.2216165066 122.2226717472 0 -0 0
38.7771685123 122.2226717472 0 -0 0
42.3327205181 122.2226717472 0 -0 0
45.8882725239 122.2226717472 0 -0 0
49.4438245296 122.2226717472 -9.9619016156 -0.19379187 1
52.9993765354 122.2226717472 0 -0 0
-124.778223753 118.6671197414 0 -0 0
-121.2226717472 118.6671197414 -9.8787329925 0.1366688399 1
-117.6671197414 118.6671197414 -9.9624529133 0.1690164096 1
-114.1115677357 118.6671197414 -9.9176216733 -0.1726306312 1
-110.5560157299 118.6671197414 -9.9143554136 0.1094447587 1
-107.0004637241 118.6671197414 -9.8609425452 0.2879048258 1
-103.4449117184 118.6671197414 -9.8481911017 0.0643242664 1
-99.8893597126 118.6671197414 -9.9152732884 -0.4221379324 1
-96.3338077068 118.6671197414 -10.0185420813 -0.0698515625 1
-92.7782557011 118.6671197414 -9.6937604532 -0.6935682655 1
-89.2227036953 118.6671197414 -9.525129236 0.2961227409 1
-85.6671516895 118.6671197414 -9.4878715372 -0.2653302602 1
-82.1115996838 118.6671197414 -10.0465780736 0.0807586647 1
-78.556047678 118.6671197414 -10.2709762719 0.269408431 1
-75.0004956722 118.6671197414 -9.8426981722 -0.1341586456 1
-71.4449436665 118.6671197414 0 -0 0
-67.8893916607 118.6671197414 0 -0 0
-64.3338396549 118.6671197414 0 -0 0
-60.7782876492 118.6671197414 0 -0 0
-57.2227356434 118.6671197414 -10.0859464549 -0.3117194531 1
-53.6671836376 118.6671197414 -9.6567232735 -0.3852668579 1
-50.1116316319 118.6671197414 -10.1511041115 -0.2677029881 1
-46.5560796261 118.6671197414 -10.0641136353 0.2035462589 1
-43.0005276203 118.6671197414 -9.2152312131 -0.4145371843 1
-39.4449756145 118.6671197414 -10.2151033271 -0.0722142668 1
-35.8894236088 118.6671197414 -10.372485208 0.0085801964 1
-32.333871603 118.6671197414 0 -0 0
-28.7783195972 118.6671197414 -10.3798296385 -0.4678097224 1
-25.2227675915 118.6671197414 -9.8309004021 0.5550049663 1
-21.6672155857 118.6671197414 -10.5266445035 -0.4685743794 1
-18.1116635799 118.6671197414 -10.7175696256 -0.3727402293 1
-14.5561115742 118.6671197414 -10.9401506895 -0.1066624954 1
-11.0005595684 118.6671197414 -10.4361020951 -0.1008889053 1
-7.4450075626 118.6671197414 -10.7076176288 -0.3216485389 1
-3.8894555569 118.6671197414 -10.4124822119 -0.2747925329 1
-0.3339035511 118.6671197414 -10.0189458889 0.3788159592 1
3.2216484547 118.6671197414 -9.7235205037 0.3685074088 1
6.7772004604 118.6671197414 -10.4977658133 0.046904692 1
10.3327524662 118.6671197414 0 -0 0
13.888304472 118.6671197414 0 -0 0
17.4438564777 118.6671197414 0 -0 0
20.9994084835 118.6671197414 0 -0 0
24.5549604893 118.6671197414 0 -0 0
28.110512495 118.6671197414 0 -0 0
31.6660645008 118.6671197414 0 -0 0
35.2216165066 118.6671197414 0 -0 0
38.7771685123 118.6671197414 0 -0 0
42.3327205181 118.6671197414 -9.7186418774 0.3370161404 1
45.8882725239 118.6671197414 -10.0052006777 0.4681290454 1
49.4438245296 118.6671197414 -9.6652733992 0.2395223696 1
52.9993765354 118.6671197414 0 -0 0
-124.778223753 115.1115677357 -9.664660528 -0.6049582629 1
-121.2226717472 115.1115677357 -10.1961787817 0.1917298736 1
-117.6671197414 115.1115677357 -10.1042051473 0.0123590914 1
-114.1115677357 115.1115677357 -10.501451632 0.1115482815 1
-110.5560157299 115.1115677357 -9.8105410508 0.0598594713 1
-107.0004637241 115.1115677357 -10.1187092878 -0.4625516313 1
-103.4449117184 115.1115677357 -10.0815775999 -0.5003921305 1
-99.8893597126 115.1115677357 -10.1079339242 -0.4726998043 1
-96.3338077068 115.1115677357 -9.7015845843 -0.0776928769 1
-92.7782557011 115.1115677357 -10.2086739076 -0.2579772381 1
-89.2227036953 115.1115677357 -10.0627762015 -0.3939286751 1
-85.6671516895 115.1115677357 -9.6448782493 -0.2617217664 1
-82.1115996838 115.1115677357 -10.0102511371 0.4005972289 1
-78.556047678 115.1115677357 -9.6872780518 0.0947687852 1
-75.0004956722 115.1115677357 0 -0 0
-71.4449436665 115.1115677357 0 -0 0
-67.8893916607 115.1115677357 0 -0 0
-64.3338396549 115.1115677357 0 -0 0
-60.7782876492 115.1115677357 -9.6710326699 -0.2443580377 1
-57.2227356434 115.1115677357 -10.5054052238 0.0258293697 1
-53.6671836376 115.1115677357 -11.0240868335 -0.1652188995 1
-50.1116316319 115.1115677357 -9.7685278726 -0.051645852 1
-46.5560796261 115.1115677357 -10.7312539793 0.1448437968 1
-43.0005276203 115.1115677357 -10.1685165262 0.4082910533 1
-39.4449756145 115.1115677357 -11.1507292156 0.0128645669 1
-35.8894236088 115.1115677357 -10.560799184 -0.3446211844 1
-32.333871603 115.1115677357 0 -0 0
-28.7783195972 115.1115677357 -10.9617823213 -0.716983381 1
-25.2227675915 115.1115677357 -9.7696519471 -0.6348171174 1
-21.6672155857 115.1115677357 -10.5623693084 1.1785527002 1
-18.1116635799 115.1115677357 -11.1120789532 0.7110909397 1
-14.5561115742 115.1115677357 -10.0328056555 -0.567651878 1
-11.0005595684 115.1115677357 -10.113076028 -0.0811553126 1
-7.4450075626 115.1115677357 -10.2376420941 0.0687074409 1
-3.8894555569 115.1115677357 0 -0 0
-0.3339035511 115.1115677357 -10.8827262356 0.6053649344 1
3.2216484547 115.1115677357 -9.8873661708 0.3695613181 1
6.7772004604 115.1115677357 -11.0274289861 -0.2005048141 1
10.3327524662 115.1115677357 -10.4564371034 0.229563213 1
13.888304472 115.1115677357 0 -0 0
17.4438564777 115.1115677357 0 -0 0
20.9994084835 115.1115677357 0 -0 0
24.5549604893 115.1115677357 0 -0 0
28.110512495 115.1115677357 0 -0 0
31.6660645008 115.1115677357 0 -0 0
35.2216165066 115.1115677357 0 -0 0
38.7771685123 115.1115677357 -9.5936505244 0.5332824062 1
42.3327205181 115.1115677357 -9.9052038723 0.4689853467 1
45.8882725239 115.1115677357 -9.8009212645 0.1583770806 1
49.4438245296 115.1115677357 -9.0502399924 0.4994871432 1
52.9993765354 115.1115677357 0 -0 0
-124.778223753 111.5560157299 -10.2596080844 -0.1002316439 1
-121.2226717472 111.5560157299 -9.4475838492 -0.053053451 1
-117.6671197414 111.5560157299 -9.8458756515 -0.2542069348 1
-114.1115677357 111.5560157299 0 -0 0
-110.5560157299 111.5560157299 -9.696234849 -0.3264140419 1
-107.0004637241 111.5560157299 -9.918764363 0.0600040974 1
-103.4449117184 111.5560157299 -9.7798373505 -0.2409958379 1
-99.8893597126 111.5560157299 -10.1784799786 0.2401323769 1
-96.3338077068 111.5560157299 -9.873883005 0.4514168504 1
-92.7782557011 111.5560157299 -9.8147194575 -0.0988770268 1
-89.2227036953 111.5560157299 -10.0236168837 -0.0943420665 1
-85.6671516895 111.5560157299 -9.7691837021 -0.3406575689 1
-82.1115996838 111.5560157299 -10.034965024 -0.5324060577 1
-78.556047678 111.5560157299 -9.8754781884 0.2817975932 1
-75.0004956722 111.5560157299 -10.0031329534 0.5379448094 1
-71.4449436665 111.5560157299 0 -0 0
-67.8893916607 111.5560157299 0 -0 0
-64.3338396549 111.5560157299 0 -0 0
-60.7782876492 111.5560157299 -10.5806494799 -0.5823579223 1
-57.2227356434 111.5560157299 -10.1694716315 -0.2591471347 1
-53.6671836376 111.5560157299 -9.3693468343 -0.1055999944 1
-50.1116316319 111.5560157299 -10.2637478287 -0.3445925455 1
-46.5560796261 111.5560157299 -10.4836797998 -0.2402755711 1
-43.0005276203 111.5560157299 -10.3246239787 -0.7935793903 1
-39.4449756145 111.5560157299 -9.6442166921 0.0154391986 1
-35.8894236088 111.5560157299 -11.0001089648 -0.0239077036 1
-32.333871603 111.5560157299 -10.1490550025 0.8897500467 1
-28.7783195972 111.5560157299 -10.1098112002 -1.2444692861 1
-25.2227675915 111.5560157299 -9.946313495 0.6691522225 1
-21.6672155857 111.5560157299 -10.0163426184 0.0384948967 1
-18.1116635799 111.5560157299 -9.6538608215 -0.9563024149 1
-14.5561115742 111.5560157299 -10.8956452163 0.5040507423 1
-11.0005595684 111.5560157299 -10.634094567 0.522449765 1
-7.4450075626 111.5560157299 -10.6788678133 -0.1168808335 1
-3.8894555569 111.5560157299 -10.4684181621 0.6062412829 1
-0.3339035511 111.5560157299 -11.2530650982 -0.1717270758 1
3.2216484547 111.5560157299 -9.9305521095 -0.492802838 1
6.7772004604 111.5560157299 -9.6499874184 0.1010593064 1
10.3327524662 111.5560157299 -10.5084667158 0.6058976168 1
13.888304472 111.5560157299 0 -0 0
17.4438564777 111.5560157299 0 -0 0
20.9994084835 111.5560157299 0 -0 0
24.5549604893 111.5560157299 0 -0 0
28.110512495 111.5560157299 0 -0 0
31.6660645008 111.5560157299 0 -0 0
35.2216165066 111.5560157299 0 -0 0
38.7771685123 111.5560157299 -9.8876110329 0.7219593795 1
42.3327205181 111.5560157299 -10.0047438882 0.0247482535 1
45.8882725239 111.5560157299 0 -0 0
49.4438245296 111.5560157299 -10.0857760538 0.5757394864 1
52.9993765354 111.5560157299 0 -0 0
-124.778223753 108.0004637241 -9.9854212629 -0.274619268 1
-121.2226717472 108.0004637241 -10.2429961253 -0.0957954876 1
-117.6671197414 108.0004637241 -10.270750025 -0.5714135897 1
-114.1115677357 108.0004637241 -9.7887655089 0.3644249422 1
-110.5560157299 108.0004637241 -10.5988451668 0.0867413184 1
-107.0004637241 108.0004637241 -10.0849770302 -0.0335718801 1
-103.4449117184 108.0004637241 -10.0661999748 -0.5223366416 1
-99.8893597126 108.0004637241 -10.7198464134 0.0675790706 1
-96.3338077068 108.0004637241 -9.7646372862 -0.8479903223 1
-92.7782557011 108.0004637241 -9.5721112529 -0.0311347148 1
-89.2227036953 108.0004637241 -10.0564384262 0.503688461 1
-85.6671516895 108.0004637241 -9.6659292286 0.1771498402 1
-82.1115996838 108.0004637241 -10.0817107705 0.5880026377 1
-78.556047678 108.0004637241 -9.656488435 -0.330658318 1
-75.0004956722 108.0004637241 -9.7610588632 -0.1358111067 1
-71.4449436665 108.0004637241 0 -0 0
-67.8893916607 108.0004637241 0 -0 0
-64.3338396549 108.0004637241 0 -0 0
-60.7782876492 108.0004637241 -11.2415816394 0.3398456578 1
-57.2227356434 108.0004637241 -10.4478196764 -0.1443025227 1
-53.6671836376 108.0004637241 -10.3922273923 -0.5714751632 1
-50.1116316319 108.0004637241 -9.6617637093 -0.2613709406 1
-46.5560796261 108.0004637241 -10.455187018 -0.0645991993 1
-43.0005276203 108.0004637241 -9.937154794 0.0748533359 1
-39.4449756145 108.0004637241 -10.0912074098 0.5435995483 1
-35.8894236088 108.0004637241 -9.7824048225 0.0225731336 1
-32.333871603 108.0004637241 0 -0 0
-28.7783195972 108.0004637241 -10.9596480117 -0.0477022837 1
-25.2227675915 108.0004637241 -11.1307307136 1.0270145746 1
-21.6672155857 108.0004637241 -11.1686735967 0.032463557 1
-18.1116635799 108.0004637241 -10.8329590915 0.0682134209 1
-14.5561115742 108.0004637241 -10.2985554747 -0.3961123866 1
-11.0005595684 108.0004637241 -10.2869796556 0.4974494897 1
-7.4450075626 108.0004637241 -10.605828032 0.9189673912 1
-3.8894555569 108.0004637241 -9.5363098391 0.5755404465 1
-0.3339035511 108.0004637241 -9.8623258011 0.2962401602 1
3.2216484547 108.0004637241 -10.8863676641 0.4354005792 1
6.7772004604 108.0004637241 -10.0850672425 -0.4598051666 1
10.3327524662 108.0004637241 -10.080513667 0.7085077164 1
13.888304472 108.0004637241 0 -0 0
17.4438564777 108.0004637241 0 -0 0
20.9994084835 108.0004637241 0 -0 0
24.5549604893 108.0004637241 0 -0 0
28.110512495 108.0004637241 0 -0 0
31.6660645008 108.0004637241 0 -0 0
35.2216165066 108.0004637241 -10.4992077789 0.6969003945 1
38.7771685123 108.0004637241 -10.1371369493 0.3116006019 1
42.3327205181 108.0004637241 -9.6612167075 0.2284233872 1
45.8882725239 108.0004637241 -9.8692134421 0.4765030422 1
49.4438245296 108.0004637241 -9.4987743436 0.4397107246 1
52.9993765354 108.0004637241 0 -0 0
-124.778223753 104.4449117184 -9.6107135452 -0.1412324391 1
-121.2226717472 104.4449117184 -9.6899128251 0.1911928953 1
-117.6671197414 104.4449117184 -10.1225082299 0.0669432883 1
-114.1115677357 104.4449117184 -10.0402087956 0.1953627104 1
-110.5560157299 104.4449117184 -10.1263272192 0.1487329512 1
-107.0004637241 104.4449117184 -10.0258965353 0.2136858402 1
-103.4449117184 104.4449117184 -10.1190200192 -0.0614918851 1
-99.8893597126 104.4449117184 -10.2854718207 -0.1564840533 1
-96.3338077068 104.4449117184 -9.6010508006 -0.4013776373 1
-92.7782557011 104.4449117184 -9.5616680999 -0.0566118268 1
-89.2227036953 104.4449117184 -10.2432939692 -0.4702024974 1
-85.6671516895 104.4449117184 -10.6282150131 -0.3864281629 1
-82.1115996838 104.4449117184 0 -0 0
-78.556047678 104.4449117184 -9.8459300653 -0.5607986036 1
-75.0004956722 104.4449117184 -9.4036346854 -0.4574281429 1
-71.4449436665 104.4449117184 0 -0 0
-67.8893916607 104.4449117184 0 -0 0
-64.3338396549 104.4449117184 0 -0 0
-60.7782876492 104.4449117184 -9.4792942047 -0.110425639 1
-57.2227356434 104.4449117184 -10.8416416718 -0.6217835813 1
-53.6671836376 104.4449117184 -10.0051777666 0.0013889837 1
-50.1116316319 104.4449117184 -10.0100735763 -0.3680778262 1
-46.5560796261 104.4449117184 -10.5600910886 -0.0451448353 1
-43.0005276203 104.4449117184 -10.1839041749 -0.4699275646 1
-39.4449756145 104.4449117184 -10.2766725371 -0.1891137155 1
-35.8894236088 104.4449117184 -10.8062204386 0.304415117 1
-32.333871603 104.4449117184 -9.4010142316 -0.5253222407 1
-28.7783195972 104.4449117184 0 -0 0
-25.2227675915 104.4449117184 -10.8870528483 0.2786229778 1
-21.6672155857 104.4449117184 -10.3408192427 0.2700356216 1
-18.1116635799 104.4449117184 -10.6524663828 -0.4535633314 1
-14.5561115742 104.4449117184 -10.2833324993 0.0693432231 1
-11.0005595684 104.4449117184 -11.2107368928 0.9761691782 1
-7.4450075626 104.4449117184 0 -0 0
-3.8894555569 104.4449117184 -9.6601212719 0.0876864001 1
-0.3339035511 104.4449117184 -10.8061237826 0.5872666195 1
3.2216484547 104.4449117184 -10.3373253043 0.2580173324 1
6.7772004604 104.4449117184 -10.1504468502 0.1785445517 1
10.3327524662 104.4449117184 -10.8612027155 0.0729058948 1
13.888304472 104.4449117184 -10.2717094262 0.4512894075 1
17.4438564777 104.4449117184 0 -0 0
20.9994084835 104.4449117184 0 -0 0
24.5549604893 104.4449117184 0 -0 0
28.110512495 104.4449117184 0 -0 0
31.6660645008 104.4449117184 0 -0 0
35.2216165066 104.4449117184 -10.3543811654 0.5195114201 1
38.7771685123 104.4449117184 -11.0925787671 0.3928217839 1
42.3327205181 104.4449117184 -9.958287394 1.1297893474 1
45.8882725239 104.4449117184 -9.6888975782 0.4467873819 1
49.4438245296 104.4449117184 0 -0 0
52.9993765354 104.4449117184 0 -0 0
-124.778223753 100.8893597126 -9.3181391566 0.130273787 1
-121.2226717472 100.8893597126 -10.5929011756 0.3673160331 1
-117.6671197414 100.8893597126 -10.5140448458 -0.2193534666 1
-114.1115677357 100.8893597126 -10.016796544 -0.4704931817 1
-110.5560157299 100.8893597126 -9.988256508 -0.0927769539 1
-107.0004637241 100.8893597126 -9.7459604668 0.2073752718 1
-103.4449117184 100.8893597126 -9.6335401326 -0.0110402728 1
-99.8893597126 100.8893597126 -9.7751219655 -0.2000322733 1
-96.3338077068 100.8893597126 -8.9990466341 -0.3263725156 1
-92.7782557011 100.8893597126 -10.0878981918 -0.4253927365 1
-89.2227036953 100.8893597126 -9.7533636069 -0.3614450709 1
-85.6671516895 100.8893597126 -9.7776250001 0.0281763227 1
-82.1115996838 100.8893597126 -9.6966458164 0.0872339064 1
-78.556047678 100.8893597126 -9.8053144625 0.0466641258 1
-75.0004956722 100.8893597126 -9.9770830646 0.286862372 1
-71.4449436665 100.8893597126 0 -0 0
-67.8893916607 100.8893597126 0 -0 0
-64.3338396549 100.8893597126 0 -0 0
-60.7782876492 100.8893597126 -10.0693115847 -0.6382237074 1
-57.2227356434 100.8893597126 -10.7335458025 -0.6257500606 1
-53.6671836376 100.8893597126 -10.6770206082 -0.1634561789 1
-50.1116316319 100.8893597126 -11.1084360927 -0.3060532586 1
-46.5560796261 100.8893597126 -9.8722949813 -0.6241491495 1
-43.0005276203 100.8893597126 -10.4617152416 -0.5113106883 1
-39.4449756145 100.8893597126 -10.9174493971 -0.6382666656 1
-35.8894236088 100.8893597126 -10.8073745839 -0.4335676934 1
-32.333871603 100.8893597126 -10.3945886647 0.6153412743 1
-28.7783195972 100.8893597126 -10.8628902591 0.2829889689 1
-25.2227675915 100.8893597126 -11.1138058752 0.3253171743 1
-21.6672155857 100.8893597126 -10.5630723919 -0.3997824539 1
-18.1116635799 100.8893597126 -10.9129903297 0.3979681834 1
-14.5561115742 100.8893597126 -10.6802252943 -0.3134850376 1
-11.0005595684 100.8893597126 -11.1783699919 0.2831536422 1
-7.4450075626 100.8893597126 -10.0932608146 0.5841020277 1
-3.8894555569 100.8893597126 -10.5113585227 0.7989864033 1
-0.3339035511 100.8893597126 -10.7686534404 0.1959369192 1
3.2216484547 100.8893597126 -9.9625416937 0.7059960901 1
6.7772004604 100.8893597126 -9.408952918 0.4151987415 1
10.3327524662 100.8893597126 -11.1194348392 1.1217905194 1
13.888304472 100.8893597126 0 -0 0
17.4438564777 100.8893597126 0 -0 0
20.9994084835 100.8893597126 0 -0 0
24.5549604893 100.8893597126 0 -0 0
28.110512495 100.8893597126 0 -0 0
31.6660645008 100.8893597126 0 -0 0
35.2216165066 100.8893597126 -9.4625233 0.6285366198 1
38.7771685123 100.8893597126 -9.994379492 0.1477348877 1
42.3327205181 100.8893597126 -9.1635581542 0.3684444034 1
45.8882725239 100.8893597126 -9.7818048388 0.7081067726 1
49.4438245296 100.8893597126 -9.5465296091 -0.3942823647 1
52.9993765354 100.8893597126 0 -0 0
-124.778223753 97.3338077068 -9.8870353922 -0.1859648751 1
-121.2226717472 97.3338077068 -9.7464874214 -0.4126942749 1
-117.6671197414 97.3338077068 -9.868304159 0.2267093526 1
-114.1115677357 97.3338077068 -10.745135225 0.1774963701 1
-110.5560157299 97.3338077068 -10.1030395465 -0.1177614778 1
-107.0004637241 97.3338077068 -10.0542103244 -0.017181872 1
-103.4449117184 97.3338077068 -9.6485339972 0.0356682432 1
-99.8893597126 97.3338077068 -10.7591210025 0.2206064159 1
-96.3338077068 97.3338077068 -10.3007492098 -0.0376643703 1
-92.7782557011 97.3338077068 -10.0008905323 0.0360548675 1
-89.2227036953 97.3338077068 -9.4284187375 -0.6608269118 1
-85.6671516895 97.3338077068 -9.866131903 0.3592842704 1
-82.1115996838 97.3338077068 -10.0876791047 -0.3340033345 1
-78.556047678 97.3338077068 -10.6305956167 0.163009413 1
-75.0004956722 97.3338077068 -10.0176084551 -0.6618636378 1
-71.4449436665 97.3338077068 0 -0 0
-67.8893916607 97.3338077068 0 -0 0
-64.3338396549 97.3338077068 0 -0 0
-60.7782876492 97.3338077068 -10.739901477 -0.3940174555 1
-57.2227356434 97.3338077068 -12.0174070969 -0.4588285822 1
-53.6671836376 97.3338077068 -10.198120495 -0.5498127446 1
-50.1116316319 97.3338077068 -10.9297512108 -0.1171371511 1
-46.5560796261 97.3338077068 0 -0 0
-43.0005276203 97.3338077068 -10.4308339805 -0.7610542598 1
-39.4449756145 97.3338077068 -10.6619465548 -0.3755969536 1
-35.8894236088 97.3338077068 0 -0 0
-32.333871603 97.3338077068 -10.3624830932 0.4825515652 1
-28.7783195972 97.3338077068 0 -0 0
-25.2227675915 97.3338077068 -10.224389471 0.8144585366 1
-21.6672155857 97.3338077068 -11.2160064394 0.4252180396 1
-18.1116635799 97.3338077068 -10.2710106385 0.7085435149 1
-14.5561115742 97.3338077068 -9.9693677612 -0.3556671849 1
-11.0005595684 97.3338077068 -10.5389334297 0.7181031597 1
-7.4450075626 97.3338077068 -11.3035081189 0.1182368826 1
-3.8894555569 97.3338077068 -10.3106024027 -0.1087774737 1
-0.3339035511 97.3338077068 -10.4357569971 -0.2344418394 1
3.2216484547 97.3338077068 -10.6070208397 -0.0581540283 1
6.7772004604 97.3338077068 -11.2631137512 -0.0860539862 1
10.3327524662 97.3338077068 -10.4677852437 0.0697112322 1
13.888304472 97.3338077068 -10.4552586151 0.3357273926 1
17.4438564777 97.3338077068 0 -0 0
20.9994084835 97.3338077068 0 -0 0
24.5549604893 97.3338077068 0 -0 0
28.110512495 97.3338077068 0 -0 0
31.6660645008 97.3338077068 0 -0 0
35.2216165066 97.3338077068 -10.245544982 0.4840164419 1
38.7771685123 97.3338077068 -8.9415627546 0.4509156707 1
42.3327205181 97.3338077068 -9.8003685348 0.4463921659 1
45.8882725239 97.3338077068 -10.3026522608 0.0251620848 1
49.4438245296 97.3338077068 -10.3493622087 -0.0031760473 1
52.9993765354 97.3338077068 0 -0 0
-124.778223753 93.7782557011 0 -0 0
-121.2226717472 93.7782557011 -10.1422389586 -0.382895562 1
-117.6671197414 93.7782557011 -9.7091566936 -0.475595191 1
-114.1115677357 93.7782557011 -9.9501639871 -0.0908051697 1
-110.5560157299 93.7782557011 -9.9995502346 -0.3262923268 1
-107.0004637241 93.7782557011 -9.3494514322 -0.3007335941 1
-103.4449117184 93.7782557011 -9.6453507902 -0.1495262471 1
-99.8893597126 93.7782557011 -9.7901416051 -0.0875317503 1
-96.3338077068 93.7782557011 -9.7096664649 -0.286936833 1
-92.7782557011 93.7782557011 -9.8508802888 -0.3151403626 1
-89.2227036953 93.7782557011 -9.3811503322 -0.6243467575 1
-85.6671516895 93.7782557011 -10.6030751235 -0.2027085729 1
-82.1115996838 93.7782557011 -9.6670919655 -0.647194824 1
-78.556047678 93.7782557011 -10.1768389731 -0.54360814 1
-75.0004956722 93.7782557011 -10.0226503228 0.0970384132 1
-71.4449436665 93.7782557011 0 -0 0
-67.8893916607 93.7782557011 0 -0 0
-64.3338396549 93.7782557011 0 -0 0
-60.7782876492 93.7782557011 -10.3042603316 -0.257708033 1
-57.2227356434 93.7782557011 -10.0019730804 0.1078309601 1
-53.6671836376 93.7782557011 -11.0190843441 -0.3335093145 1
-50.1116316319 93.7782557011 -10.5538270584 0.1893084597 1
-46.5560796261 93.7782557011 -9.99102302 -0.7847171013 1
-43.0005276203 93.7782557011 -10.0447867142 0.0652206621 1
-39.4449756145 93.7782557011 -10.567709736 -0.12852109 1
-35.8894236088 93.7782557011 -10.3148896371 0.3113714912 1
-32.333871603 93.7782557011 -9.5563971214 0.7205904429 1
-28.7783195972 93.7782557011 0 -0 0
-25.2227675915 93.7782557011 -11.0610538481 0.028290878 1
-21.6672155857 93.7782557011 -10.9426207894 -0.1963292713 1
-18.1116635799 93.7782557011 -11.0793791258 -0.0175226742 1
-14.5561115742 93.7782557011 -11.3688884426 0.3172625006 1
-11.0005595684 93.7782557011 -11.0235906656 0.2099799743 1
-7.4450075626 93.7782557011 -10.9265773113 0.6343059141 1
-3.8894555569 93.7782557011 -10.6592917343 0.1240448393 1
-0.3339035511 93.7782557011 -10.9986354965 0.1300360846 1
3.2216484547 93.7782557011 -11.1576569509 0.1600767957 1
6.7772004604 93.7782557011 -10.4471437998 0.8343081165 1
10.3327524662 93.7782557011 -9.7863770296 0.3204199327 1
13.888304472 93.7782557011 -10.4092832534 0.7334850806 1
17.4438564777 93.7782557011 0 -0 0
20.9994084835 93.7782557011 0 -0 0
24.5549604893 93.7782557011 0 -0 0
28.110512495 93.7782557011 0 -0 0
31.6660645008 93.7782557011 0 -0 0
35.2216165066 93.7782557011 -10.0000528462 1.3111576887 1
38.7771685123 93.7782557011 -10.1431067155 0.4733599295 1
42.3327205181 93.7782557011 0 -0 0
45.8882725239 93.7782557011 -9.8727875694 -0.2901200401 1
49.4438245296 93.7782557011 -9.7555530462 0.86088496 1
52.9993765354 93.7782557011 0 -0 0
-124.778223753 90.2227036953 -9.8598227665 -0.5375639128 1
-121.2226717472 90.2227036953 -9.622297956 0.0229368469 1
-117.6671197414 90.2227036953 -9.9005987468 0.0911388122 1
-114.1115677357 90.2227036953 -10.0668715556 -0.2446157873 1
-110.5560157299 90.2227036953 -9.4202423487 0.1219642276 1
-107.0004637241 90.2227036953 -10.1326692903 -0.2088401485 1
-103.4449117184 90.2227036953 -10.4551497875 -0.4602505006 1
-99.8893597126 90.2227036953 -10.2281039285 -0.040880512 1
-96.3338077068 90.2227036953 -9.5712921821 0.1300876345 1
-92.7782557011 90.2227036953 -9.9658680949 -0.5314953426 1
-89.2227036953 90.2227036953 -10.1119362021 -0.547557436 1
-85.6671516895 90.2227036953 -10.191555041 -0.4213904587 1
-82.1115996838 90.2227036953 -9.9042673822 0.1440963231 1
-78.556047678 90.2227036953 -9.8369331737 -0.4237259561 1
-75.0004956722 90.2227036953 -9.8470054537 -0.3830516437 1
-71.4449436665 90.2227036953 0 -0 0
-67.8893916607 90.2227036953 0 -0 0
-64.3338396549 90.2227036953 0 -0 0
-60.7782876492 90.2227036953 0 -0 0
-57.2227356434 90.2227036953 -10.8002972106 -0.4796790896 1
-53.6671836376 90.2227036953 -10.2236033348 -1.4328670306 1
-50.1116316319 90.2227036953 -9.8942266049 0.0544810971 1
-46.5560796261 90.2227036953 -10.6194121497 -0.8087594074 1
-43.0005276203 90.2227036953 -9.6651330689 -0.6600708464 1
-39.4449756145 90.2227036953 -10.6005670771 0.0746127696 1
-35.8894236088 90.2227036953 -10.558872506 -0.7897661288 1
-32.333871603 90.2227036953 -10.9039705271 0.3294383034 1
-28.7783195972 90.2227036953 -9.7840773308 0.7590524049 1
-25.2227675915 90.2227036953 -10.5491725309 0.4467444236 1
-21.6672155857 90.2227036953 -10.2422099891 0.396176824 1
-18.1116635799 90.2227036953 -10.8459024152 0.1182426103 1
-14.5561115742 90.2227036953 0 -0 0
-11.0005595684 90.2227036953 -10.6728643965 0.1232587031 1
-7.4450075626 90.2227036953 -10.8744675101 0.3076756489 1
-3.8894555569 90.2227036953 -11.147360572 0.3772837813 1
-0.3339035511 90.2227036953 -11.1040536343 0.4089125161 1
3.2216484547 90.2227036953 -10.8666519707 0.5785532524 1
6.7772004604 90.2227036953 -10.0952870125 0.6773057003 1
10.3327524662 90.2227036953 -10.3113026224 0.9120926377 1
13.888304472 90.2227036953 -11.6142474078 0.8434582259 1
17.4438564777 90.2227036953 0 -0 0
20.9994084835 90.2227036953 0 -0 0
24.5549604893 90.2227036953 0 -0 0
28.110512495 90.2227036953 0 -0 0
31.6660645008 90.2227036953 0 -0 0
35.2216165066 90.2227036953 -9.413569499 1.0328812409 1
38.7771685123 90.2227036953 -9.7901401732 0.822175272 1
42.3327205181 90.2227036953 -10.9940862167 0.4864435835 1
45.8882725239 90.2227036953 -8.775236964 0.1635778939 1
49.4438245296 90.2227036953 0 -0 0
52.9993765354 90.2227036953 0 -0 0
-124.778223753 86.6671516895 -9.8671041916 0.134814475 1