TITLE = "B00011"
VARIABLES = "x", "y", "Vx", "Vy", "isValid"
ZONE T="Frame 0", I=51, J=39, F=POINT
-124.778223753 125.778223753 -9.9514613265 -0.5310972628 1
-121.2226717472 125.778223753 -10.146574879 0.3696672818 1
-117.6671197414 125.778223753 -10.1313132412 0.1705800903 1
-114.1115677357 125.778223753 -9.8722806619 -0.0477166031 1
-110.5560157299 125.778223753 -9.3765738456 0.3761267722 1
-107.0004637241 125.778223753 -10.1125762802 0.0447095249 1
-103.4449117184 125.778223753 -9.3319445094 0.2281599099 1
-99.8893597126 125.778223753 -10.0244703211 -0.0588313369 1
-96.3338077068 125.778223753 -10.3268563763 -0.2707644801 1
-92.7782557011 125.778223753 -9.5506349868 -0.4549136527 1
-89.2227036953 125.778223753 -10.1093945051 -0.2256941058 1
-85.6671516895 125.778223753 -10.0725692528 -0.1917628082 1
-82.1115996838 125.778223753 -10.0604535915 -0.2259733345 1
-78.556047678 125.778223753 -10.0769366759 -0.3888152102 1
-75.0004956722 125.778223753 -10.2473792997 0.0018114066 1
-71.4449436665 125.778223753 0 -0 0
-67.8893916607 125.778223753 0 -0 0
-64.3338396549 125.778223753 0 -0 0
-60.7782876492 125.778223753 0 -0 0
-57.2227356434 125.778223753 -9.7729826442 -0.3391339826 1
-53.6671836376 125.778223753 -10.3892446571 -0.524500306 1
-50.1116316319 125.778223753 -10.2126575702 -0.1852718152 1
-46.5560796261 125.778223753 -10.528506744 0.0743593159 1
-43.0005276203 125.778223753 -9.7232713458 -0.39918963 1
-39.4449756145 125.778223753 -10.5814234445 -0.40713834 1
-35.8894236088 125.778223753 -10.2891232728 0.1157009133 1
-32.333871603 125.778223753 -9.8507900764 -0.0521441678 1
-28.7783195972 125.778223753 -10.0338366537 0.7201508367 1
-25.2227675915 125.778223753 -10.6070716736 -0.0503213056 1
-21.6672155857 125.778223753 -9.9591709022 0.7075411555 1
-18.1116635799 125.778223753 -9.8264499264 -0.0216853296 1
-14.5561115742 125.778223753 -9.9487520923 0.2528422941 1
-11.0005595684 125.778223753 -9.7919530117 0.438639632 1
-7.4450075626 125.778223753 -9.8687852915 0.2258344361 1
-3.8894555569 125.778223753 -11.0108692929 0.1739981358 1
-0.3339035511 125.778223753 -10.3683082332 0.3905636114 1
3.2216484547 125.778223753 -10.3206603633 0.0393855646 1
6.7772004604 125.778223753 -10.3986969063 0.3556127711 1
10.3327524662 125.778223753 -9.719021342 0.5266926092 1
13.888304472 125.778223753 0 -0 0
17.4438564777 125.778223753 0 -0 0
20.9994084835 125.778223753 0 -0 0
24.5549604893 125.778223753 0 -0 0
28.110512495 125.778223753 0 -0 0
31.6660645008 125.778223753 0 -0 0
35.2216165066 125.778223753 0 -0 0
38.7771685123 125.778223753 -9.9877023465 0.4260371104 1
42.3327205181 125.778223753 -10.5621616768 0.6233644453 1
45.8882725239 125.778223753 0 -0 0
49.4438245296 125.778223753 -9.7727435099 0.392721548 1
52.9993765354 125.778223753 0 -0 0
-124.778223753 122.2226717472 -9.8022300594 0.2872146297 1
-121.2226717472 122.2226717472 -9.3992873095 0.1264261588 1
-117.6671197414 122.2226717472 -9.6829951133 -0.2218078152 1
-114.1115677357 122.2226717472 -10.0327870402 0.0972374532 1
-110.5560157299 122.2226717472 -9.8249420914 0.0620517745 1
-107.0004637241 122.2226717472 -10.0439934183 -0.0577702679 1
-103.4449117184 122.2226717472 -9.9654829025 0.3032767231 1
-99.8893597126 122.2226717472 -9.9333229172 -0.3435830264 1
-96.3338077068 122.2226717472 -10.2987674021 0.4640694899 1
-92.7782557011 122.2226717472 -9.9512136005 -0.1123043469 1
-89.2227036953 122.2226717472 -10.4235726026 -0.1744907239 1
-85.6671516895 122.2226717472 -10.4630984975 0.4526225455 1
-82.1115996838 122.2226717472 -10.101520256 -0.6360929777 1
-78.556047678 122.2226717472 -10.1684950471 0.7325757974 1
-75.0004956722 122.2226717472 -9.7931715944 0.3193789109 1
-71.4449436665 122.2226717472 0 -0 0
-67.8893916607 122.2226717472 0 -0 0
-64.3338396549 122.2226717472 0 -0 0
-60.7782876492 122.2226717472 0 -0 0
-57.2227356434 122.2226717472 -10.7327868732 -0.6896991582 1
-53.6671836376 122.2226717472 -10.0205854625 0.3169532011 1
-50.1116316319 122.2226717472 -9.4549855573 0.3563129908 1
-46.5560796261 122.2226717472 -10.5958237692 0.0031889348 1
-43.0005276203 122.2226717472 -10.3242087156 0.2827340832 1
-39.4449756145 122.2226717472 -10.3544713777 -0.2244769551 1
-35.8894236088 122.2226717472 -10.0525535675 -0.4078700623 1
-32.333871603 122.2226717472 -9.9123736058 0.2180919257 1
-28.7783195972 122.2226717472 -10.460001207 0.7547393956 1
-25.2227675915 122.2226717472 -10.4756866996 0.2708804674 1
-21.6672155857 122.2226717472 -9.9995087082 -0.3749311006 1
-18.1116635799 122.2226717472 -11.6097131634 0.502034568 1
-14.5561115742 122.2226717472 -10.7444722359 0.2761843806 1
-11.0005595684 122.2226717472 0 -0 0
-7.4450075626 122.2226717472 0 -0 0
-3.8894555569 122.2226717472 -10.9413950471 -0.5251117452 1
-0.3339035511 122.2226717472 -11.0553905175 0.6198332763 1
3.2216484547 122.2226717472 0 -0 0
6.7772004604 122.2226717472 -10.0798764528 -0.3338587083 1
10.3327524662 122.2226717472 -10.4941773666 0.2918584176 1
13.888304472 122.2226717472 0 -0 0
17.4438564777 122.2226717472 0 -0 0
20.9994084835 122.2226717472 0 -0 0
24.5549604893 122.2226717472 0 -0 0
28.110512495 122.2226717472 0 -0 0
31.6660645008 122.2226717472 0 -0 0
35.2216165066 122.2226717472 0 -0 0
38.7771685123 122.2226717472 -10.3695740699 0.3704892165 1
42.3327205181 122.2226717472 -10.1296593482 -0.1394897657 1
45.8882725239 122.2226717472 -10.6798272145 0.2350074565 1
49.4438245296 122.2226717472 -10.1595139069 0.4642957367 1
52.9993765354 122.2226717472 0 -0 0
-124.778223753 118.6671197414 -9.5862975023 0.0209664947 1
-121.2226717472 118.6671197414 -9.9882608039 0.3161284025 1
-117.6671197414 118.6671197414 -10.0063805979 0.5186608465 1
-114.1115677357 118.6671197414 -10.3323278267 -0.0254184024 1
-110.5560157299 118.6671197414 -9.4931568351 -0.4174483224 1
-107.0004637241 118.6671197414 -9.2052677607 0.0041755429 1
-103.4449117184 118.6671197414 -9.9036430555 -0.4574940122 1
-99.8893597126 118.6671197414 -9.897656106 0.1303425202 1
-96.3338077068 118.6671197414 -10.2696717727 -0.4393842418 1
-92.7782557011 118.6671197414 -10.2446614738 -0.3905908183 1
-89.2227036953 118.6671197414 -10.551442159 -0.1583011877 1
-85.6671516895 118.6671197414 -10.3822109581 -0.3659685757 1
-82.1115996838 118.6671197414 -10.2643521082 -0.0600857181 1
-78.556047678 118.6671197414 -9.4927802344 -0.8772062349 1
-75.0004956722 118.6671197414 -9.7568031316 0.3696787374 1
-71.4449436665 118.6671197414 0 -0 0
-67.8893916607 118.6671197414 0 -0 0
-64.3338396549 118.6671197414 0 -0 0
-60.7782876492 118.6671197414 0 -0 0
-57.2227356434 118.6671197414 -10.5754651339 -0.7694239608 1
-53.6671836376 118.6671197414 -10.8598087199 -0.1429479056 1
-50.1116316319 118.6671197414 -10.6886465452 0.38798182 1
-46.5560796261 118.6671197414 -9.9705834799 -0.2090220051 1
-43.0005276203 118.6671197414 -9.6946726003 -0.163552119 1
-39.4449756145 118.6671197414 -9.5923388655 -0.1133825992 1
-35.8894236088 118.6671197414 -9.7121752273 -0.1731432665 1
-32.333871603 118.6671197414 -9.4095027837 0.3473476019 1
-28.7783195972 118.6671197414 -11.1004372647 0.3969114102 1
-25.2227675915 118.6671197414 -10.2812246807 -0.3754079373 1
-21.6672155857 118.6671197414 -10.6599260846 -0.2360126798 1
-18.1116635799 118.6671197414 -10.1710983176 -0.1023838527 1
-14.5561115742 118.6671197414 -10.6923022931 0.648255893 1
-11.0005595684 118.6671197414 -10.7458690953 0.198903903 1
-7.4450075626 118.6671197414 -10.3618773817 0.8498446872 1
-3.8894555569 118.6671197414 -10.7099932205 0.205569593 1
-0.3339035511 118.6671197414 -9.7716466423 0.6590083454 1
3.2216484547 118.6671197414 -10.3691974692 0.1002617147 1
6.7772004604 118.6671197414 -9.5572706061 -0.3720414417 1
10.3327524662 118.6671197414 -9.893805614 0.2130386024 1
13.888304472 118.6671197414 0 -0 0
17.4438564777 118.6671197414 0 -0 0
20.9994084835 118.6671197414 0 -0 0
24.5549604893 118.6671197414 0 -0 0
28.110512495 118.6671197414 0 -0 0
31.6660645008 118.6671197414 0 -0 0
35.2216165066 118.6671197414 0 -0 0
38.7771685123 118.6671197414 -10.2547838718 0.5778859675 1
42.3327205181 118.6671197414 -10.6954862162 0.3236976479 1
45.8882725239 118.6671197414 -9.8635658629 0.0407888678 1
49.4438245296 118.6671197414 -10.0687574232 0.658205026 1
52.9993765354 118.6671197414 0 -0 0
-124.778223753 115.1115677357 -9.4365793749 -0.6771983046 1
-121.2226717472 115.1115677357 -9.5849099505 0.0418341854 1
-117.6671197414 115.1115677357 -9.8560223925 0.1802571543 1
-114.1115677357 115.1115677357 -9.6104357485 0.4323548385 1
-110.5560157299 115.1115677357 -9.4759219813 -0.7172282431 1
-107.0004637241 115.1115677357 -9.2887113166 -0.1592147667 1
-103.4449117184 115.1115677357 -10.3965704724 -0.2943256537 1
-99.8893597126 115.1115677357 -10.0387997647 0.0220547706 1
-96.3338077068 115.1115677357 -10.3681364002 0.0208633949 1
-92.7782557011 115.1115677357 -9.5874559433 0.3058456271 1
-89.2227036953 115.1115677357 -9.8989477177 0.0960217344 1
-85.6671516895 115.1115677357 -9.8760094389 0.5831011002 1
-82.1115996838 115.1115677357 -9.4913139258 -0.2135211669 1
-78.556047678 115.1115677357 -10.9498299014 0.3395807485 1
-75.0004956722 115.1115677357 -10.5791051304 0.610139029 1
-71.4449436665 115.1115677357 0 -0 0
-67.8893916607 115.1115677357 0 -0 0
-64.3338396549 115.1115677357 0 -0 0
-60.7782876492 115.1115677357 -10.732496905 -0.4145414801 1
-57.2227356434 115.1115677357 -9.8102088402 0.4423641131 1
-53.6671836376 115.1115677357 -10.8408519558 0.4337151834 1
-50.1116316319 115.1115677357 -10.2635244457 0.1823449257 1
-46.5560796261 115.1115677357 -10.3827593918 -0.3797467215 1
-43.0005276203 115.1115677357 -10.6928786498 -0.2339478194 1
-39.4449756145 115.1115677357 -9.6694231671 -0.6037611593 1
-35.8894236088 115.1115677357 -11.4347642181 0.1768634518 1
-32.333871603 115.1115677357 -9.247278075 0.4774108934 1
-28.7783195972 115.1115677357 -9.8818002123 0.1896592854 1
-25.2227675915 115.1115677357 -10.3886604248 0.0052294522 1
-21.6672155857 115.1115677357 -10.9297275837 0.665635373 1
-18.1116635799 115.1115677357 -10.4865035895 -0.3227783412 1
-14.5561115742 115.1115677357 -10.7220573318 0.4522588323 1
-11.0005595684 115.1115677357 -10.7695312208 -0.2697778721 1
-7.4450075626 115.1115677357 -11.0051200458 0.0775024286 1
-3.8894555569 115.1115677357 -11.2000875402 0.2675755453 1
-0.3339035511 115.1115677357 -10.9929420951 0.8657535628 1
3.2216484547 115.1115677357 -10.021116713 0.3230661615 1
6.7772004604 115.1115677357 -10.3779523626 0.3788288467 1
10.3327524662 115.1115677357 -10.6900255054 0.2669669699 1
13.888304472 115.1115677357 0 -0 0
17.4438564777 115.1115677357 0 -0 0
20.9994084835 115.1115677357 0 -0 0
24.5549604893 115.1115677357 0 -0 0
28.110512495 115.1115677357 0 -0 0
31.6660645008 115.1115677357 0 -0 0
35.2216165066 115.1115677357 0 -0 0
38.7771685123 115.1115677357 -9.8834684247 0.0629095077 1
42.3327205181 115.1115677357 0 -0 0
45.8882725239 115.1115677357 -9.5530406494 0.4487691896 1
49.4438245296 115.1115677357 -10.6067194159 0.5410549874 1
52.9993765354 115.1115677357 0 -0 0
-124.778223753 111.5560157299 0 -0 0
-121.2226717472 111.5560157299 -9.9382215908 0.0433448842 1
-117.6671197414 111.5560157299 -10.6459524786 0.1740568455 1
-114.1115677357 111.5560157299 -10.4399898176 -0.090527373 1
-110.5560157299 111.5560157299 -9.7488157591 0.6635805362 1
-107.0004637241 111.5560157299 -9.7424865755 0.1965698375 1
-103.4449117184 111.5560157299 -9.7279523642 -0.2170093776 1
-99.8893597126 111.5560157299 -10.0236226115 0.1785645989 1
-96.3338077068 111.5560157299 -9.8640369718 0.3201693428 1
-92.7782557011 111.5560157299 -9.758792099 -0.1843353251 1
-89.2227036953 111.5560157299 -10.180173966 -0.4616538037 1
-85.6671516895 111.5560157299 -9.5063822514 -0.093366914 1
-82.1115996838 111.5560157299 -9.9687935524 0.0496039027 1
-78.556047678 111.5560157299 -9.9775713569 -0.4749064269 1
-75.0004956722 111.5560157299 -9.8688010428 -0.3841485112 1
-71.4449436665 111.5560157299 0 -0 0
-67.8893916607 111.5560157299 0 -0 0
-64.3338396549 111.5560157299 0 -0 0
-60.7782876492 111.5560157299 -9.9702684527 -0.5789699476 1
-57.2227356434 111.5560157299 -9.9107540794 0.1038931196 1
-53.6671836376 111.5560157299 -10.2622915437 -0.4220548798 1
-50.1116316319 111.5560157299 -9.8137915591 -0.2098310523 1
-46.5560796261 111.5560157299 -10.2744515951 -0.6329656164 1
-43.0005276203 111.5560157299 -10.4074976218 -0.3147737854 1
-39.4449756145 111.5560157299 0 -0 0
-35.8894236088 111.5560157299 -10.2719915187 -0.1256056561 1
-32.333871603 111.5560157299 -10.579067184 0.2334437759 1
-28.7783195972 111.5560157299 -10.1442923635 -0.1073426679 1
-25.2227675915 111.5560157299 -10.6817739396 0.2813952175 1
-21.6672155857 111.5560157299 -9.8264943166 0.2905739657 1
-18.1116635799 111.5560157299 -11.0746780602 0.2089976621 1
-14.5561115742 111.5560157299 -10.614170526 0.3723106468 1
-11.0005595684 111.5560157299 -10.2067551053 0.3215583266 1
-7.4450075626 111.5560157299 -10.7867725184 -0.2449422701 1
-3.8894555569 111.5560157299 -10.8490011377 0.6373845894 1
-0.3339035511 111.5560157299 -10.6311877247 -0.3977848949 1
3.2216484547 111.5560157299 -10.5594502946 -0.0828192292 1
6.7772004604 111.5560157299 -10.237693644 0.9846562984 1
10.3327524662 111.5560157299 -9.9694307666 0.1181753091 1
13.888304472 111.5560157299 0 -0 0
17.4438564777 111.5560157299 0 -0 0
20.9994084835 111.5560157299 0 -0 0
24.5549604893 111.5560157299 0 -0 0
28.110512495 111.5560157299 0 -0 0
31.6660645008 111.5560157299 0 -0 0
35.2216165066 111.5560157299 0 -0 0
38.7771685123 111.5560157299 0 -0 0
42.3327205181 111.5560157299 -9.9756554185 0.2885477677 1
45.8882725239 111.5560157299 -9.6256243572 0.2940421292 1
49.4438245296 111.5560157299 -9.5561980815 0.5904068683 1
52.9993765354 111.5560157299 0 -0 0
-124.778223753 108.0004637241 -9.7421443413 0.1204148663 1
-121.2226717472 108.0004637241 -9.8048863118 -0.3192901305 1
-117.6671197414 108.0004637241 -10.0629895608 -0.2295832602 1
-114.1115677357 108.0004637241 -9.7599849067 -0.2684561896 1
-110.5560157299 108.0004637241 -9.9510174245 -0.2217605611 1
-107.0004637241 108.0004637241 -9.9589618387 0.0845762221 1
-103.4449117184 108.0004637241 -9.9585651908 -0.4930176293 1
-99.8893597126 108.0004637241 -9.4811227946 0.4575670413 1
-96.3338077068 108.0004637241 -10.0553888127 -0.150688984 1
-92.7782557011 108.0004637241 -9.9963212054 -0.3104736636 1
-89.2227036953 108.0004637241 -9.5346158517 -0.205197288 1
-85.6671516895 108.0004637241 -10.290575262 -0.2198303033 1
-82.1115996838 108.0004637241 -10.2901514071 -0.5676848127 1
-78.556047678 108.0004637241 -9.9461302065 -0.1128857153 1
-75.0004956722 108.0004637241 -10.0984759474 -0.3296530947 1
-71.4449436665 108.0004637241 0 -0 0
-67.8893916607 108.0004637241 0 -0 0
-64.3338396549 108.0004637241 0 -0 0
-60.7782876492 108.0004637241 -9.7185602567 0.6592847102 1
-57.2227356434 108.0004637241 -9.9887591197 -0.5125235431 1
-53.6671836376 108.0004637241 -10.5232107066 -0.6382852809 1
-50.1116316319 108.0004637241 -9.8777263373 -0.4687777151 1
-46.5560796261 108.0004637241 -10.205526499 -0.8262448512 1
-43.0005276203 108.0004637241 -10.0568436658 -0.1396644626 1
-39.4449756145 108.0004637241 -10.7928224734 -0.3548595696 1
-35.8894236088 108.0004637241 -9.3402039508 -0.3188161577 1
-32.333871603 108.0004637241 0 -0 0
-28.7783195972 108.0004637241 -11.2250398455 -0.5068115265 1
-25.2227675915 108.0004637241 0 -0 0
-21.6672155857 108.0004637241 -10.3110534644 -0.5681859924 1
-18.1116635799 108.0004637241 0 -0 0
-14.5561115742 108.0004637241 -10.4989972834 -0.003233325 1
-11.0005595684 108.0004637241 -11.237789857 0.385463034 1
-7.4450075626 108.0004637241 -11.4817290517 0.8853854875 1
-3.8894555569 108.0004637241 -10.5676331271 -0.0233635656 1
-0.3339035511 108.0004637241 -11.0590999632 0.4752515249 1
3.2216484547 108.0004637241 -9.4545101526 0.5129817646 1
6.7772004604 108.0004637241 -10.442276629 0.3142539905 1
10.3327524662 108.0004637241 -10.8229569767 -0.0319151232 1
13.888304472 108.0004637241 0 -0 0
17.4438564777 108.0004637241 0 -0 0
20.9994084835 108.0004637241 0 -0 0
24.5549604893 108.0004637241 0 -0 0
28.110512495 108.0004637241 0 -0 0
31.6660645008 108.0004637241 0 -0 0
35.2216165066 108.0004637241 -9.9990533507 -0.2772683606 1
38.7771685123 108.0004637241 -9.8164206046 0.2913028241 1
42.3327205181 108.0004637241 -9.8728820775 -0.0105004307 1
45.8882725239 108.0004637241 -9.9760850011 0.35450588 1
49.4438245296 108.0004637241 -9.7433571962 0.7854001377 1
52.9993765354 108.0004637241 0 -0 0
-124.778223753 104.4449117184 -9.8023446148 -0.0637386021 1
-121.2226717472 104.4449117184 -9.9288151638 -0.0033922706 1
-117.6671197414 104.4449117184 -9.7230121643 0.0934757416 1
-114.1115677357 104.4449117184 -9.603559563 -0.3051683185 1
-110.5560157299 104.4449117184 -9.5196076677 -0.0010037913 1
-107.0004637241 104.4449117184 -9.9395217941 -0.2296949517 1
-103.4449117184 104.4449117184 -9.8945917501 -0.4233665386 1
-99.8893597126 104.4449117184 -10.2485506283 0.0959630248 1
-96.3338077068 104.4449117184 -9.5622179657 -0.0346658838 1
-92.7782557011 104.4449117184 -9.7730184427 -0.2526332305 1
-89.2227036953 104.4449117184 -9.7165369226 -0.6866262107 1
-85.6671516895 104.4449117184 -10.1072351366 -0.1508407699 1
-82.1115996838 104.4449117184 -10.2583622948 -0.3567311178 1
-78.556047678 104.4449117184 -10.4486530667 -0.3399816923 1
-75.0004956722 104.4449117184 0 -0 0
-71.4449436665 104.4449117184 0 -0 0
-67.8893916607 104.4449117184 0 -0 0
-64.3338396549 104.4449117184 0 -0 0
-60.7782876492 104.4449117184 -9.9450376347 0.2637236213 1
-57.2227356434 104.4449117184 -10.7853892625 -0.8762611531 1
-53.6671836376 104.4449117184 -10.6994870621 0.3154854606 1
-50.1116316319 104.4449117184 -10.677418688 -0.45779472 1
-46.5560796261 104.4449117184 -10.2648862226 -0.5935657323 1
-43.0005276203 104.4449117184 -10.0980119982 0.4964041721 1
-39.4449756145 104.4449117184 -10.0428306814 -0.0485958155 1
-35.8894236088 104.4449117184 -10.4067959702 -0.2993574979 1
-32.333871603 104.4449117184 -11.2576902709 0.6141685138 1
-28.7783195972 104.4449117184 -10.7168615303 0.3049034092 1
-25.2227675915 104.4449117184 0 -0 0
-21.6672155857 104.4449117184 -10.250951995 0.6230651694 1
-18.1116635799 104.4449117184 -11.3451017381 0.0561235346 1
-14.5561115742 104.4449117184 0 -0 0
-11.0005595684 104.4449117184 -10.9827108695 -0.0124106413 1
-7.4450075626 104.4449117184 -10.2156546248 0.4522387851 1
-3.8894555569 104.4449117184 -11.1208553257 0.4084528627 1
-0.3339035511 104.4449117184 -10.4260670456 0.5770540092 1
3.2216484547 104.4449117184 -10.2532932202 0.2546594285 1
6.7772004604 104.4449117184 -10.9999127887 0.6031110577 1
10.3327524662 104.4449117184 -10.1873494273 -0.4775655432 1
13.888304472 104.4449117184 0 -0 0
17.4438564777 104.4449117184 0 -0 0
20.9994084835 104.4449117184 0 -0 0
24.5549604893 104.4449117184 0 -0 0
28.110512495 104.4449117184 0 -0 0
31.6660645008 104.4449117184 0 -0 0
35.2216165066 104.4449117184 -9.6805980424 0.919640404 1
38.7771685123 104.4449117184 -10.1352739928 0.5980706219 1
42.3327205181 104.4449117184 -9.8848387932 0.4386926138 1
45.8882725239 104.4449117184 0 -0 0
49.4438245296 104.4449117184 -9.9237317698 0.1248538865 1
52.9993765354 104.4449117184 0 -0 0
-124.778223753 100.8893597126 -10.2352478871 0.3397984037 1
-121.2226717472 100.8893597126 -10.2274280519 -0.2571538714 1
-117.6671197414 100.8893597126 -9.7202442205 -0.5212283185 1
-114.1115677357 100.8893597126 0 -0 0
-110.5560157299 100.8893597126 -10.0131465238 0.0655313935 1
-107.0004637241 100.8893597126 -9.4929950257 -0.287307706 1
-103.4449117184 100.8893597126 -10.1834846159 -0.0881832839 1
-99.8893597126 100.8893597126 -10.0981823993 -0.32394251 1
-96.3338077068 100.8893597126 -9.472250482 0.055865785 1
-92.7782557011 100.8893597126 -9.4396107961 0.0641166348 1
-89.2227036953 100.8893597126 -9.3380431503 0.1679052226 1
-85.6671516895 100.8893597126 -9.8135452651 -0.2380460374 1
-82.1115996838 100.8893597126 -10.2150260023 -0.5796587117 1
-78.556047678 100.8893597126 -10.0665751436 -0.8549968145 1
-75.0004956722 100.8893597126 -9.776442216 -0.4332440745 1
-71.4449436665 100.8893597126 0 -0 0
-67.8893916607 100.8893597126 0 -0 0
-64.3338396549 100.8893597126 0 -0 0
-60.7782876492 100.8893597126 -10.4967877969 -0.3339775595 1
-57.2227356434 100.8893597126 -10.4296626519 -0.2145707803 1
-53.6671836376 100.8893597126 -10.3202851945 -0.4798795614 1
-50.1116316319 100.8893597126 -11.0878111162 -0.398251708 1
-46.5560796261 100.8893597126 -10.7407055125 0.0400857842 1
-43.0005276203 100.8893597126 -11.0595961311 0.3502186456 1
-39.4449756145 100.8893597126 -10.1523341497 -0.011552908 1
-35.8894236088 100.8893597126 -10.6531830697 0.005628964 1
-32.333871603 100.8893597126 0 -0 0
-28.7783195972 100.8893597126 -10.7128470809 -0.2942798316 1
-25.2227675915 100.8893597126 -10.6512105696 0.1755847276 1
-21.6672155857 100.8893597126 -9.7067596227 0.0537994927 1
-18.1116635799 100.8893597126 -10.9560080152 -0.3656821873 1
-14.5561115742 100.8893597126 -10.8660877856 -0.5150867193 1
-11.0005595684 100.8893597126 -9.689198286 0.0205855981 1
-7.4450075626 100.8893597126 -10.7948035651 0.2234130222 1
-3.8894555569 100.8893597126 -10.1176109883 0.493863907 1
-0.3339035511 100.8893597126 -10.9603775862 -0.0731879874 1
3.2216484547 100.8893597126 -10.9636438459 -0.1174937047 1
6.7772004604 100.8893597126 -10.5659706425 0.3711479099 1
10.3327524662 100.8893597126 -10.7982216106 0.2526647333 1
13.888304472 100.8893597126 -9.8235387883 1.0277520247 1
17.4438564777 100.8893597126 0 -0 0
20.9994084835 100.8893597126 0 -0 0
24.5549604893 100.8893597126 0 -0 0
28.110512495 100.8893597126 0 -0 0
31.6660645008 100.8893597126 0 -0 0
35.2216165066 100.8893597126 -9.6412396847 0.7669366776 1
38.7771685123 100.8893597126 -10.1251673462 0.7648317228 1
42.3327205181 100.8893597126 -9.6785976194 0.448932431 1
45.8882725239 100.8893597126 -9.9356541188 0.4759474487 1
49.4438245296 100.8893597126 -9.9319511168 -0.3449662824 1
52.9993765354 100.8893597126 0 -0 0
-124.778223753 97.3338077068 -9.7343989671 -0.3234112595 1
-121.2226717472 97.3338077068 -10.1045960675 0.2620410895 1
-117.6671197414 97.3338077068 -9.4035559286 0.0980737073 1
-114.1115677357 97.3338077068 -9.4393086564 0.1130403651 1
-110.5560157299 97.3338077068 -9.9539529056 -0.1709982173 1
-107.0004637241 97.3338077068 -10.1037984758 -0.3837189286 1
-103.4449117184 97.3338077068 -9.9729189773 -0.1041594608 1
-99.8893597126 97.3338077068 -9.6751137046 0.0414131945 1
-96.3338077068 97.3338077068 -9.9254901945 -0.3424489284 1
-92.7782557011 97.3338077068 -9.5672068516 -0.1007056167 1
-89.2227036953 97.3338077068 -10.4839790757 0.045276574 1
-85.6671516895 97.3338077068 -10.3395963643 0.3529822937 1
-82.1115996838 97.3338077068 -9.9174927985 0.6673264965 1
-78.556047678 97.3338077068 -10.0277924266 -0.2456052592 1
-75.0004956722 97.3338077068 -9.7131260368 -0.6743158054 1
-71.4449436665 97.3338077068 0 -0 0
-67.8893916607 97.3338077068 0 -0 0
-64.3338396549 97.3338077068 0 -0 0
-60.7782876492 97.3338077068 -10.4864234007 -0.9050059568 1
-57.2227356434 97.3338077068 0 -0 0
-53.6671836376 97.3338077068 -10.2575589754 -0.0350439165 1
-50.1116316319 97.3338077068 -10.2153668044 -0.2190771018 1
-46.5560796261 97.3338077068 -11.0458158373 -0.03510549 1
-43.0005276203 97.3338077068 -10.6969367734 -0.3345718154 1
-39.4449756145 97.3338077068 -10.9522942736 -0.5689148509 1
-35.8894236088 97.3338077068 -10.2653702189 -0.2779284859 1
-32.333871603 97.3338077068 -10.0247581415 -0.5326408962 1
-28.7783195972 97.3338077068 -10.8346029609 -0.3105538523 1
-25.2227675915 97.3338077068 -10.8758865647 -0.1740697329 1
-21.6672155857 97.3338077068 -9.8412662302 0.289431276 1
-18.1116635799 97.3338077068 -10.8614146429 0.2858814918 1
-14.5561115742 97.3338077068 -10.1847590443 -0.3831218088 1
-11.0005595684 97.3338077068 -11.3709633265 0.3002266867 1
-7.4450075626 97.3338077068 -10.8909720736 0.3784092877 1
-3.8894555569 97.3338077068 -11.0256447864 0.2803098054 1
-0.3339035511 97.3338077068 -10.7070742068 -0.1006755459 1
3.2216484547 97.3338077068 -10.1883073965 0.3242260345 1
6.7772004604 97.3338077068 -11.0960755694 -0.256992062 1
10.3327524662 97.3338077068 -10.589362131 0.6958865796 1
13.888304472 97.3338077068 -10.1923955909 0.5819068606 1
17.4438564777 97.3338077068 0 -0 0
20.9994084835 97.3338077068 0 -0 0
24.5549604893 97.3338077068 0 -0 0
28.110512495 97.3338077068 0 -0 0
31.6660645008 97.3338077068 0 -0 0
35.2216165066 97.3338077068 -10.1731474266 0.5232588123 1
38.7771685123 97.3338077068 0 -0 0
42.3327205181 97.3338077068 -10.0048341005 0.5470276175 1
45.8882725239 97.3338077068 -9.72702017 0.7113386657 1
49.4438245296 97.3338077068 -9.9850675732 0.165970669 1
52.9993765354 97.3338077068 0 -0 0
-124.778223753 93.7782557011 -9.8351704531 -0.0833332964 1
-121.2226717472 93.7782557011 -10.1829247266 -0.26202677 1
-117.6671197414 93.7782557011 -10.6452093007 0.1086142323 1
-114.1115677357 93.7782557011 -9.1117877233 0.1234419917 1
-110.5560157299 93.7782557011 -9.652786865 0.0676592593 1
-107.0004637241 93.7782557011 -9.6092042784 0.1396888056 1
-103.4449117184 93.7782557011 -9.662438154 0.1648566181 1
-99.8893597126 93.7782557011 -10.3323120753 0.2373057234 1
-96.3338077068 93.7782557011 -10.1884620463 -0.1319448633 1
-92.7782557011 93.7782557011 -9.5054844238 -0.0144139281 1
-89.2227036953 93.7782557011 -9.8841657805 -0.304562607 1
-85.6671516895 93.7782557011 -9.439762582 -0.4537237089 1
-82.1115996838 93.7782557011 -10.1570881971 -0.3052456434 1
-78.556047678 93.7782557011 -9.8372567926 -0.6481742723 1
-75.0004956722 93.7782557011 -9.3436191325 0.1852030819 1
-71.4449436665 93.7782557011 0 -0 0
-67.8893916607 93.7782557011 0 -0 0
-64.3338396549 93.7782557011 0 -0 0
-60.7782876492 93.7782557011 -9.8178468189 0.1450342451 1
-57.2227356434 93.7782557011 -10.6351334409 -0.8643302124 1
-53.6671836376 93.7782557011 -10.962627167 0.0504931387 1
-50.1116316319 93.7782557011 -10.2455607334 -0.2264931294 1
-46.5560796261 93.7782557011 -10.0210007257 -0.4443230097 1
-43.0005276203 93.7782557011 -10.6660848671 -0.7098795168 1
-39.4449756145 93.7782557011 -10.0014088953 -0.7064271046 1
-35.8894236088 93.7782557011 0 -0 0
-32.333871603 93.7782557011 -11.221792917 0.1036754644 1
-28.7783195972 93.7782557011 -11.5587360284 0.1310756745 1
-25.2227675915 93.7782557011 -9.8373770757 -0.5220660046 1
-21.6672155857 93.7782557011 0 -0 0
-18.1116635799 93.7782557011 -11.2980309408 -1.075660508 1
-14.5561115742 93.7782557011 -11.1405803267 0.2939118225 1
-11.0005595684 93.7782557011 -10.5137276707 0.4927183534 1
-7.4450075626 93.7782557011 -11.2942355785 -0.0367880218 1
-3.8894555569 93.7782557011 -11.0365934149 0.3716920478 1
-0.3339035511 93.7782557011 -10.9671084295 -0.0118665033 1
3.2216484547 93.7782557011 -10.674087991 0.9537292151 1
6.7772004604 93.7782557011 -10.4932279891 0.4994728238 1
10.3327524662 93.7782557011 -10.909330286 -0.3318411021 1
13.888304472 93.7782557011 -10.5731138851 0.5340026731 1
17.4438564777 93.7782557011 0 -0 0
20.9994084835 93.7782557011 0 -0 0
24.5549604893 93.7782557011 0 -0 0
28.110512495 93.7782557011 0 -0 0
31.6660645008 93.7782557011 0 -0 0
35.2216165066 93.7782557011 -9.6965140777 0.4100738211 1
38.7771685123 93.7782557011 -9.9386440137 0.894534165 1
42.3327205181 93.7782557011 -9.3284462751 0.9693058802 1
45.8882725239 93.7782557011 -9.7240145237 0.3173484171 1
49.4438245296 93.7782557011 -10.0789686015 0.1828704484 1
52.9993765354 93.7782557011 0 -0 0
-124.778223753 90.2227036953 -9.459461808 0.6576909588 1
-121.2226717472 90.2227036953 -10.0772875016 -0.1130847553 1
-117.6671197414 90.2227036953 -9.8396438399 -0.3887622283 1
-114.1115677357 90.2227036953 -10.3580225939 0.3424890227 1
-110.5560157299 90.2227036953 -9.722008373 -0.3807748559 1
-107.0004637241 90.2227036953 -9.7923482277 0.1092671979 1
-103.4449117184 90.2227036953 -9.5787067777 0.3842387236 1
-99.8893597126 90.2227036953 -9.4902184901 -0.3900337928 1
-96.3338077068 90.2227036953 -9.4503059709 -0.2768602572 1
-92.7782557011 90.2227036953 -9.6473268701 -0.2409815185 1
-89.2227036953 90.2227036953 -9.9962581999 0.341569716 1
-85.6671516895 90.2227036953 -9.6006842235 0.1064577277 1
-82.1115996838 90.2227036953 -9.9374827087 -0.3243348621 1
-78.556047678 90.2227036953 -10.0528499795 0.0052480674 1
-75.0004956722 90.2227036953 -10.2371552339 -0.4941116329 1
-71.4449436665 90.2227036953 0 -0 0
-67.8893916607 90.2227036953 0 -0 0
-64.3338396549 90.2227036953 0 -0 0
-60.7782876492 90.2227036953 -10.8774617009 -0.1383914662 1
-57.2227356434 90.2227036953 -10.0484166871 -0.4470394037 1
-53.6671836376 90.2227036953 -10.0802458938 -0.3556972557 1
-50.1116316319 90.2227036953 -10.235620192 -0.1459521199 1
-46.5560796261 90.2227036953 -10.8781275539 -0.2400679395 1
-43.0005276203 90.2227036953 -10.2894841222 0.4958700577 1
-39.4449756145 90.2227036953 -10.4239878658 -0.2860690762 1
-35.8894236088 90.2227036953 -10.3577390693 0.3496215258 1
-32.333871603 90.2227036953 -10.1229392444 -0.7403999285 1
-28.7783195972 90.2227036953 -10.1392891581 -0.4397651384 1
-25.2227675915 90.2227036953 -10.4657690694 0.5904927848 1
-21.6672155857 90.2227036953 -10.9677664069 -0.4354750401 1
-18.1116635799 90.2227036953 -10.6307738935 0.239536689 1
-14.5561115742 90.2227036953 -10.8203272152 0.4535962661 1
-11.0005595684 90.2227036953 0 -0 0
-7.4450075626 90.2227036953 -11.5303728373 -0.1477935973 1
-3.8894555569 90.2227036953 -10.8056734368 -0.3247744683 1
-0.3339035511 90.2227036953 -11.0442356893 0.7322536105 1
3.2216484547 90.2227036953 -10.5758882727 0.5026545989 1
6.7772004604 90.2227036953 -10.7734196593 0.7499781885 1
10.3327524662 90.2227036953 -10.4822278107 -0.1307806944 1
13.888304472 90.2227036953 0 -0 0
17.4438564777 90.2227036953 0 -0 0
20.9994084835 90.2227036953 0 -0 0
24.5549604893 90.2227036953 0 -0 0
28.110512495 90.2227036953 0 -0 0
31.6660645008 90.2227036953 0 -0 0
35.2216165066 90.2227036953 0 -0 0
38.7771685123 90.2227036953 -9.8862549838 0.9048140765 1
42.3327205181 90.2227036953 -9.7838768589 0.5303583807 1