TITLE = "B00003"
VARIABLES = "x", "y", "Vx", "Vy", "isValid"
ZONE T="Frame 0", I=51, J=39, F=POINT
-124.778223753 125.778223753 -10.1105028282 0.0662402048 1
-121.2226717472 125.778223753 -9.8953463836 -0.2943414051 1
-117.6671197414 125.778223753 -10.1739135156 0.5476118498 1
-114.1115677357 125.778223753 -9.6836423511 -0.0846564108 1
-110.5560157299 125.778223753 -10.0693359277 0.1821559094 1
-107.0004637241 125.778223753 -10.2445440546 -0.1466981617 1
-103.4449117184 125.778223753 -10.0301937933 0.2325559718 1
-99.8893597126 125.778223753 -9.8799343919 -0.7596752997 1
-96.3338077068 125.778223753 -9.9928874085 0.06937043 1
-92.7782557011 125.778223753 -9.8962098446 0.5387739038 1
-89.2227036953 125.778223753 -9.9469607328 0.0513565997 1
-85.6671516895 125.778223753 -9.8925970549 -0.0370686825 1
-82.1115996838 125.778223753 -10.4360433855 -0.1795941651 1
-78.556047678 125.778223753 -10.3212073651 -0.0286502955 1
-75.0004956722 125.778223753 -9.7476186556 -0.0812670041 1
-71.4449436665 125.778223753 0 -0 0
-67.8893916607 125.778223753 0 -0 0
-64.3338396549 125.778223753 0 -0 0
-60.7782876492 125.778223753 0 -0 0
-57.2227356434 125.778223753 -9.896470458 0.0705847168 1
-53.6671836376 125.778223753 -10.7139403686 -0.6608970769 1
-50.1116316319 125.778223753 -9.6048125123 -0.715181998 1
-46.5560796261 125.778223753 -10.4028237631 -0.5614644567 1
-43.0005276203 125.778223753 -9.7044456044 0.4494049719 1
-39.4449756145 125.778223753 -10.3122591596 -0.5168594635 1
-35.8894236088 125.778223753 -10.0619413793 0.5162437284 1
-32.333871603 125.778223753 -10.5108036451 -0.0564786562 1
-28.7783195972 125.778223753 -10.3721630211 0.1003705423 1
-25.2227675915 125.778223753 -10.0898041066 0.8672914685 1
-21.6672155857 125.778223753 -9.9743079611 0.4589345459 1
-18.1116635799 125.778223753 -10.0899329814 0.2399519522 1
-14.5561115742 125.778223753 -10.3673130335 0.2655980334 1
-11.0005595684 125.778223753 -10.6306564742 0.6837150726 1
-7.4450075626 125.778223753 -11.1091900102 -0.1505729967 1
-3.8894555569 125.778223753 -10.7122671444 0.3385655017 1
-0.3339035511 125.778223753 -10.6711045398 0.5689348981 1
3.2216484547 125.778223753 -10.62068801 -0.1035752285 1
6.7772004604 125.778223753 -10.0682562435 -0.0660755315 1
10.3327524662 125.778223753 -10.0595357167 0.8674962362 1
13.888304472 125.778223753 0 -0 0
17.4438564777 125.778223753 0 -0 0
20.9994084835 125.778223753 0 -0 0
24.5549604893 125.778223753 0 -0 0
28.110512495 125.778223753 0 -0 0
31.6660645008 125.778223753 0 -0 0
35.2216165066 125.778223753 0 -0 0
38.7771685123 125.778223753 -10.138305414 0.2425509269 1
42.3327205181 125.778223753 -10.1485523909 0.5214058793 1
45.8882725239 125.778223753 -10.6735109183 0.5613527652 1
49.4438245296 125.778223753 -10.215896623 0.4813043437 1
52.9993765354 125.778223753 0 -0 0
-124.778223753 122.2226717472 -10.023065586 -0.0300722139 1
-121.2226717472 122.2226717472 -9.80789339 -0.1148360203 1
-117.6671197414 122.2226717472 -10.1034877443 0.0343451288 1
-114.1115677357 122.2226717472 -10.3234927446 0.0983200013 1
-110.5560157299 122.2226717472 -10.2655792825 -0.0142850534 1
-107.0004637241 122.2226717472 -9.4202738514 -0.3258870872 1
-103.4449117184 122.2226717472 -9.7578957033 -0.2200622779 1
-99.8893597126 122.2226717472 -9.5679886919 0.394795 1
-96.3338077068 122.2226717472 -10.624763317 -0.2850695806 1
-92.7782557011 122.2226717472 -10.0097757324 -0.2284448663 1
-89.2227036953 122.2226717472 -10.1161876379 0.4123992949 1
-85.6671516895 122.2226717472 -10.0896995749 -0.3804913314 1
-82.1115996838 122.2226717472 -10.1791028734 0.0124149371 1
-78.556047678 122.2226717472 -10.1033531418 -0.2074296856 1
-75.0004956722 122.2226717472 -10.6371825499 -0.0183761116 1
-71.4449436665 122.2226717472 0 -0 0
-67.8893916607 122.2226717472 0 -0 0
-64.3338396549 122.2226717472 0 -0 0
-60.7782876492 122.2226717472 0 -0 0
-57.2227356434 122.2226717472 -10.8155087304 -0.1868025612 1
-53.6671836376 122.2226717472 -10.2679290993 0.2101718545 1
-50.1116316319 122.2226717472 -9.7372771705 -0.542174766 1
-46.5560796261 122.2226717472 -11.2283705425 -0.6195411601 1
-43.0005276203 122.2226717472 -9.7241376707 -0.8389705197 1
-39.4449756145 122.2226717472 -11.0805848209 -0.2087255931 1
-35.8894236088 122.2226717472 -9.9085846873 0.4692173213 1
-32.333871603 122.2226717472 -10.2705080268 0.2469240778 1
-28.7783195972 122.2226717472 -11.2260092702 -0.1487558623 1
-25.2227675915 122.2226717472 -10.2286881608 0.192633429 1
-21.6672155857 122.2226717472 -9.531943848 -0.2104854498 1
-18.1116635799 122.2226717472 -9.7776106807 0.1186063236 1
-14.5561115742 122.2226717472 -9.0753447995 -0.6150248151 1
-11.0005595684 122.2226717472 -10.9675960058 0.125558402 1
-7.4450075626 122.2226717472 -11.0092791213 0.6724585766 1
-3.8894555569 122.2226717472 0 -0 0
-0.3339035511 122.2226717472 -9.6174851989 -0.7267506574 1
3.2216484547 122.2226717472 -9.6792391295 -0.5097713506 1
6.7772004604 122.2226717472 -10.1998345296 0.5055671689 1
10.3327524662 122.2226717472 -10.3806744843 -0.2052517018 1
13.888304472 122.2226717472 0 -0 0
17.4438564777 122.2226717472 0 -0 0
20.9994084835 122.2226717472 0 -0 0
24.5549604893 122.2226717472 0 -0 0
28.110512495 122.2226717472 0 -0 0
31.6660645008 122.2226717472 0 -0 0
35.2216165066 122.2226717472 0 -0 0
38.7771685123 122.2226717472 -9.9900521633 0.4739556174 1
42.3327205181 122.2226717472 -9.0093566165 0.0659237456 1
45.8882725239 122.2226717472 -9.7853345758 -0.1263545617 1
49.4438245296 122.2226717472 -10.6615148243 0.3825046418 1
52.9993765354 122.2226717472 0 -0 0
-124.778223753 118.6671197414 -9.2340784337 0.0043803106 1
-121.2226717472 118.6671197414 -10.032051022 0.4039823398 1
-117.6671197414 118.6671197414 -10.2963044619 0.2121407748 1
-114.1115677357 118.6671197414 -9.6944291702 -0.2259375359 1
-110.5560157299 118.6671197414 -9.8497590782 0.0921640827 1
-107.0004637241 118.6671197414 -9.2235679794 -0.4005514068 1
-103.4449117184 118.6671197414 -9.8520917117 -0.2175993377 1
-99.8893597126 118.6671197414 -9.9619588933 -0.3524968654 1
-96.3338077068 118.6671197414 -9.7553525743 -0.3325040912 1
-92.7782557011 118.6671197414 -10.2107874539 -0.3858095639 1
-89.2227036953 118.6671197414 -9.9429498633 0.5363567857 1
-85.6671516895 118.6671197414 -9.9259154813 -0.0647638726 1
-82.1115996838 118.6671197414 -10.0309699058 0.0596375203 1
-78.556047678 118.6671197414 -10.0855612625 -0.3101342933 1
-75.0004956722 118.6671197414 -10.1644168763 0.2906784974 1
-71.4449436665 118.6671197414 0 -0 0
-67.8893916607 118.6671197414 0 -0 0
-64.3338396549 118.6671197414 0 -0 0
-60.7782876492 118.6671197414 0 -0 0
-57.2227356434 118.6671197414 -9.2367704846 -0.1566329752 1
-53.6671836376 118.6671197414 -10.5575902019 -0.0146874291 1
-50.1116316319 118.6671197414 -10.6008298384 -0.4959588381 1
-46.5560796261 118.6671197414 -11.2415759116 0.3823814948 1
-43.0005276203 118.6671197414 -10.8762202071 0.678547194 1
-39.4449756145 118.6671197414 -10.0616363756 0.6082832322 1
-35.8894236088 118.6671197414 -9.5373093346 -0.5968649267 1
-32.333871603 118.6671197414 -9.5353132075 -0.3948995317 1
-28.7783195972 118.6671197414 -10.7762606322 -0.0636641411 1
-25.2227675915 118.6671197414 -10.4081892498 0.1212482566 1
-21.6672155857 118.6671197414 -9.8476813303 -0.0081592055 1
-18.1116635799 118.6671197414 -10.3077399507 -0.2209500819 1
-14.5561115742 118.6671197414 -9.4003154439 1.1815798256 1
-11.0005595684 118.6671197414 -10.3445079253 -0.0497642802 1
-7.4450075626 118.6671197414 -10.9470576617 0.293774356 1
-3.8894555569 118.6671197414 -11.0422846683 -0.0651891594 1
-0.3339035511 118.6671197414 -10.1238972136 0.607225027 1
3.2216484547 118.6671197414 -10.1813209515 0.7639338952 1
6.7772004604 118.6671197414 -10.4407644982 0.1074414719 1
10.3327524662 118.6671197414 -10.6265460847 0.5120767772 1
13.888304472 118.6671197414 0 -0 0
17.4438564777 118.6671197414 0 -0 0
20.9994084835 118.6671197414 0 -0 0
24.5549604893 118.6671197414 0 -0 0
28.110512495 118.6671197414 0 -0 0
31.6660645008 118.6671197414 0 -0 0
35.2216165066 118.6671197414 0 -0 0
38.7771685123 118.6671197414 -9.8830402741 0.1031800125 1
42.3327205181 118.6671197414 0 -0 0
45.8882725239 118.6671197414 -10.1620312609 0.1332293153 1
49.4438245296 118.6671197414 -9.8987902041 -0.5049084756 1
52.9993765354 118.6671197414 0 -0 0
-124.778223753 115.1115677357 -9.7106731202 -0.4301625353 1
-121.2226717472 115.1115677357 -10.2681424587 -0.2029376836 1
-117.6671197414 115.1115677357 -9.6470562331 0.3737483165 1
-114.1115677357 115.1115677357 0 -0 0
-110.5560157299 115.1115677357 -9.7063400637 -0.2625279497 1
-107.0004637241 115.1115677357 -10.0066956251 0.1050257857 1
-103.4449117184 115.1115677357 -9.9579050655 -0.2541052669 1
-99.8893597126 115.1115677357 -10.2031637948 -0.6948856522 1
-96.3338077068 115.1115677357 -10.2044024246 0.0289051811 1
-92.7782557011 115.1115677357 -9.8176921691 -0.2102549072 1
-89.2227036953 115.1115677357 -10.0591233174 -0.0756494957 1
-85.6671516895 115.1115677357 -9.477434112 0.1207370533 1
-82.1115996838 115.1115677357 -10.4628378841 0.5151282456 1
-78.556047678 115.1115677357 -9.7686696349 -0.4344526336 1
-75.0004956722 115.1115677357 -9.8678144348 -0.1132966827 1
-71.4449436665 115.1115677357 0 -0 0
-67.8893916607 115.1115677357 0 -0 0
-64.3338396549 115.1115677357 0 -0 0
-60.7782876492 115.1115677357 0 -0 0
-57.2227356434 115.1115677357 -10.1387507479 -0.3213564228 1
-53.6671836376 115.1115677357 -10.2360640941 -0.3862047799 1
-50.1116316319 115.1115677357 -10.8673715216 0.1690550721 1
-46.5560796261 115.1115677357 -10.3907138296 -0.3865670613 1
-43.0005276203 115.1115677357 -9.8081267966 0.0691842775 1
-39.4449756145 115.1115677357 -10.6462259796 -0.6806865153 1
-35.8894236088 115.1115677357 -10.5494574874 -0.1732549579 1
-32.333871603 115.1115677357 -10.7055155379 -0.3813075383 1
-28.7783195972 115.1115677357 -10.843538279 0.3168672846 1
-25.2227675915 115.1115677357 -9.5763755762 0.6166443415 1
-21.6672155857 115.1115677357 -10.0315627298 0.0432131456 1
-18.1116635799 115.1115677357 -11.4375350259 -0.6968531405 1
-14.5561115742 115.1115677357 -9.779430679 0.4445778954 1
-11.0005595684 115.1115677357 -10.9163289025 -0.2743557906 1
-7.4450075626 115.1115677357 -9.6711901835 0.0308440306 1
-3.8894555569 115.1115677357 -10.0642883322 0.4198010031 1
-0.3339035511 115.1115677357 -10.440794569 0.155255447 1
3.2216484547 115.1115677357 -10.7343276428 -0.2479579399 1
6.7772004604 115.1115677357 -9.9823640667 -0.1838656481 1
10.3327524662 115.1115677357 -10.2086080382 0.2773055911 1
13.888304472 115.1115677357 0 -0 0
17.4438564777 115.1115677357 0 -0 0
20.9994084835 115.1115677357 0 -0 0
24.5549604893 115.1115677357 0 -0 0
28.110512495 115.1115677357 0 -0 0
31.6660645008 115.1115677357 0 -0 0
35.2216165066 115.1115677357 0 -0 0
38.7771685123 115.1115677357 -9.8580314071 0.7096675894 1
42.3327205181 115.1115677357 -10.675295834 0.3249763721 1
45.8882725239 115.1115677357 -9.7053706389 0.1450499964 1
49.4438245296 115.1115677357 -10.1969778053 -0.1682846873 1
52.9993765354 115.1115677357 0 -0 0
-124.778223753 111.5560157299 -9.3860905321 0.0676463718 1
-121.2226717472 111.5560157299 -9.6282863374 0.2671588502 1
-117.6671197414 111.5560157299 -10.0674887226 -0.0524878339 1
-114.1115677357 111.5560157299 -9.5991248387 -0.0183030826 1
-110.5560157299 111.5560157299 -9.7237209756 -0.0064838334 1
-107.0004637241 111.5560157299 0 -0 0
-103.4449117184 111.5560157299 -9.297416092 -0.0181312496 1
-99.8893597126 111.5560157299 -10.3552102598 -0.037227628 1
-96.3338077068 111.5560157299 -9.6894732189 -0.2382207344 1
-92.7782557011 111.5560157299 -10.7239653946 -0.1502278987 1
-89.2227036953 111.5560157299 -9.5234424083 -0.4167481027 1
-85.6671516895 111.5560157299 -10.1534854311 0.3176433972 1
-82.1115996838 111.5560157299 -10.1426155594 0.1177170876 1
-78.556047678 111.5560157299 -10.2442462106 0.1352240105 1
-75.0004956722 111.5560157299 -10.1959969251 -0.1865877699 1
-71.4449436665 111.5560157299 0 -0 0
-67.8893916607 111.5560157299 0 -0 0
-64.3338396549 111.5560157299 0 -0 0
-60.7782876492 111.5560157299 -10.3107914191 -0.1907890877 1
-57.2227356434 111.5560157299 -10.7603009227 -0.140938891 1
-53.6671836376 111.5560157299 -10.7819848204 -0.0730906153 1
-50.1116316319 111.5560157299 -10.0675832307 -0.5301106547 1
-46.5560796261 111.5560157299 -9.7222188685 -0.4365876591 1
-43.0005276203 111.5560157299 -10.1563779539 0.3249391416 1
-39.4449756145 111.5560157299 -10.2933245906 -0.2926259386 1
-35.8894236088 111.5560157299 -9.8050968073 -0.0052781382 1
-32.333871603 111.5560157299 0 -0 0
-28.7783195972 111.5560157299 -10.0816993149 0.3858052681 1
-25.2227675915 111.5560157299 -10.7009046847 0.0600413279 1
-21.6672155857 111.5560157299 -9.4968927718 0.3859298471 1
-18.1116635799 111.5560157299 -10.3529291762 0.6270445362 1
-14.5561115742 111.5560157299 -10.8582593587 -0.0598294005 1
-11.0005595684 111.5560157299 -10.1111915923 0.3536724897 1
-7.4450075626 111.5560157299 -10.6532704182 0.4099793129 1
-3.8894555569 111.5560157299 -11.6756949027 0.3391167993 1
-0.3339035511 111.5560157299 -10.412676956 0.3184295333 1
3.2216484547 111.5560157299 -9.7394336751 0.1905571131 1
6.7772004604 111.5560157299 -10.1611434569 0.3898863028 1
10.3327524662 111.5560157299 -9.7129699551 0.1144451002 1
13.888304472 111.5560157299 0 -0 0
17.4438564777 111.5560157299 0 -0 0
20.9994084835 111.5560157299 0 -0 0
24.5549604893 111.5560157299 0 -0 0
28.110512495 111.5560157299 0 -0 0
31.6660645008 111.5560157299 0 -0 0
35.2216165066 111.5560157299 0 -0 0
38.7771685123 111.5560157299 -10.8246588398 -0.2098353482 1
42.3327205181 111.5560157299 -9.4041244096 0.8664480546 1
45.8882725239 111.5560157299 -9.473261433 0.7227498115 1
49.4438245296 111.5560157299 0 -0 0
52.9993765354 111.5560157299 0 -0 0
-124.778223753 108.0004637241 -9.0175616441 0.6318487016 1
-121.2226717472 108.0004637241 -9.8004372681 0.0402103632 1
-117.6671197414 108.0004637241 -10.3906952144 -0.1392807021 1
-114.1115677357 108.0004637241 -9.884990579 0.5135473817 1
-110.5560157299 108.0004637241 -9.5215909073 -0.3207206405 1
-107.0004637241 108.0004637241 -10.0424898792 0.1721537945 1
-103.4449117184 108.0004637241 -9.7699125605 -0.2377940156 1
-99.8893597126 108.0004637241 -10.0522829305 -0.094625591 1
-96.3338077068 108.0004637241 -9.9094223734 -0.2752120919 1
-92.7782557011 108.0004637241 -10.9569480851 -0.2968702146 1
-89.2227036953 108.0004637241 -10.2111969894 -0.5023123647 1
-85.6671516895 108.0004637241 -10.337011709 -1.0313104005 1
-82.1115996838 108.0004637241 -9.4845623193 -0.0757096372 1
-78.556047678 108.0004637241 -9.7311012047 -0.0885885235 1
-75.0004956722 108.0004637241 -10.024053626 -0.1206783437 1
-71.4449436665 108.0004637241 0 -0 0
-67.8893916607 108.0004637241 0 -0 0
-64.3338396549 108.0004637241 0 -0 0
-60.7782876492 108.0004637241 -10.8874974663 -0.3525498472 1
-57.2227356434 108.0004637241 -10.394604416 -0.1479869095 1
-53.6671836376 108.0004637241 -10.4001531913 -0.4849042459 1
-50.1116316319 108.0004637241 -10.3378665783 -0.1303324966 1
-46.5560796261 108.0004637241 -10.0890666565 -0.4431588409 1
-43.0005276203 108.0004637241 -10.0906604079 -0.0131208845 1
-39.4449756145 108.0004637241 -10.6507745433 -0.1608171098 1
-35.8894236088 108.0004637241 -10.1238771664 0.0098947192 1
-32.333871603 108.0004637241 -9.9741475836 -0.68768012 1
-28.7783195972 108.0004637241 -11.4909035041 -0.6178328533 1
-25.2227675915 108.0004637241 -9.9672169843 0.063592544 1
-21.6672155857 108.0004637241 -11.2440617629 -0.1690894387 1
-18.1116635799 108.0004637241 -10.7141709113 0.1737661612 1
-14.5561115742 108.0004637241 -10.6921641107 0.6034332446 1
-11.0005595684 108.0004637241 -9.8212032909 0.9836997611 1
-7.4450075626 108.0004637241 -9.7941854093 0.7664655687 1
-3.8894555569 108.0004637241 -10.7215568681 0.4018358588 1
-0.3339035511 108.0004637241 -10.4595114828 0.205148602 1
3.2216484547 108.0004637241 -10.3658037667 0.4334560019 1
6.7772004604 108.0004637241 -9.6518689901 0.6265891786 1
10.3327524662 108.0004637241 -10.3958373181 0.1879824814 1
13.888304472 108.0004637241 -9.8466875626 -0.5540527249 1
17.4438564777 108.0004637241 0 -0 0
20.9994084835 108.0004637241 0 -0 0
24.5549604893 108.0004637241 0 -0 0
28.110512495 108.0004637241 0 -0 0
31.6660645008 108.0004637241 0 -0 0
35.2216165066 108.0004637241 -10.406011266 0.7739517614 1
38.7771685123 108.0004637241 -9.6729471763 0.6646015109 1
42.3327205181 108.0004637241 -8.6804338122 0.177202822 1
45.8882725239 108.0004637241 -9.5021365434 1.1568945775 1
49.4438245296 108.0004637241 -8.8569034799 0.8546975386 1
52.9993765354 108.0004637241 0 -0 0
-124.778223753 104.4449117184 -10.2806705192 0.1662298505 1
-121.2226717472 104.4449117184 -10.0892671284 0.4462819064 1
-117.6671197414 104.4449117184 -10.2465659567 0.189523251 1
-114.1115677357 104.4449117184 -9.861143017 0.1083135245 1
-110.5560157299 104.4449117184 -9.4475265715 0.3026910588 1
-107.0004637241 104.4449117184 -9.7244985201 0.058977395 1
-103.4449117184 104.4449117184 -10.3516533159 -0.3403869319 1
-99.8893597126 104.4449117184 -9.585587259 -0.3167613209 1
-96.3338077068 104.4449117184 -10.0290911979 -0.2043696256 1
-92.7782557011 104.4449117184 -9.4583033669 0.3991767425 1
-89.2227036953 104.4449117184 -9.9540474138 -0.3740662076 1
-85.6671516895 104.4449117184 -10.1293901431 0.2506328076 1
-82.1115996838 104.4449117184 -9.2790628915 -0.100204437 1
-78.556047678 104.4449117184 -10.3517778948 0.076899581 1
-75.0004956722 104.4449117184 -10.5463938475 -0.2595752853 1
-71.4449436665 104.4449117184 0 -0 0
-67.8893916607 104.4449117184 0 -0 0
-64.3338396549 104.4449117184 0 -0 0
-60.7782876492 104.4449117184 -10.1652817692 -0.583401808 1
-57.2227356434 104.4449117184 0 -0 0
-53.6671836376 104.4449117184 -9.7738790399 -0.0433950022 1
-50.1116316319 104.4449117184 -10.3456964372 0.3601205245 1
-46.5560796261 104.4449117184 -10.4198982395 -0.2373945038 1
-43.0005276203 104.4449117184 -10.9939466024 -0.796871425 1
-39.4449756145 104.4449117184 -10.51285705 -0.4311119129 1
-35.8894236088 104.4449117184 -10.1578786291 -0.4562768615 1
-32.333871603 104.4449117184 0 -0 0
-28.7783195972 104.4449117184 -10.4051521008 0.3513427201 1
-25.2227675915 104.4449117184 -10.7033497256 -0.4156125727 1
-21.6672155857 104.4449117184 -11.1923314264 -0.1699586275 1
-18.1116635799 104.4449117184 -10.1663929562 -0.2337559392 1
-14.5561115742 104.4449117184 -10.4759372895 0.3306282472 1
-11.0005595684 104.4449117184 -11.2286655226 0.9150768048 1
-7.4450075626 104.4449117184 0 -0 0
-3.8894555569 104.4449117184 -10.4148334606 0.4571861447 1
-0.3339035511 104.4449117184 -10.6809176383 0.606115272 1
3.2216484547 104.4449117184 -11.1313528924 0.1273726725 1
6.7772004604 104.4449117184 -9.8643419755 0.5402130055 1
10.3327524662 104.4449117184 -10.3753075657 0.6779672575 1
13.888304472 104.4449117184 -10.9608143285 1.0613940699 1
17.4438564777 104.4449117184 0 -0 0
20.9994084835 104.4449117184 0 -0 0
24.5549604893 104.4449117184 0 -0 0
28.110512495 104.4449117184 0 -0 0
31.6660645008 104.4449117184 0 -0 0
35.2216165066 104.4449117184 -10.0693072889 0.7763760392 1
38.7771685123 104.4449117184 -9.9640266175 0.3133003171 1
42.3327205181 104.4449117184 -9.8955425596 -0.0639662809 1
45.8882725239 104.4449117184 -9.5503987164 0.0727068549 1
49.4438245296 104.4449117184 -10.198515711 -0.0286817982 1
52.9993765354 104.4449117184 0 -0 0
-124.778223753 100.8893597126 -10.7171264396 -0.0241769087 1
-121.2226717472 100.8893597126 -10.507623302 -0.4230257364 1
-117.6671197414 100.8893597126 -9.2233030701 -0.3438178649 1
-114.1115677357 100.8893597126 -10.0199367928 -0.0405325501 1
-110.5560157299 100.8893597126 -9.8559321801 0.1982580971 1
-107.0004637241 100.8893597126 -9.8865685791 -0.0543092641 1
-103.4449117184 100.8893597126 -9.989293234 -0.2356904928 1
-99.8893597126 100.8893597126 -10.4618928024 -0.0838817302 1
-96.3338077068 100.8893597126 -9.7183612167 -0.1070018657 1
-92.7782557011 100.8893597126 -9.9883524482 0.0874057394 1
-89.2227036953 100.8893597126 0 -0 0
-85.6671516895 100.8893597126 -10.0392808972 -0.0059654704 1
-82.1115996838 100.8893597126 -9.9665067411 -0.1227217249 1
-78.556047678 100.8893597126 -10.4471838942 -0.3163546494 1
-75.0004956722 100.8893597126 -9.85711926 0.1636766979 1
-71.4449436665 100.8893597126 0 -0 0
-67.8893916607 100.8893597126 0 -0 0
-64.3338396549 100.8893597126 0 -0 0
-60.7782876492 100.8893597126 -10.0830868667 0.4605526403 1
-57.2227356434 100.8893597126 -9.8628856905 0.3683914215 1
-53.6671836376 100.8893597126 -10.2477988587 -0.4235612827 1
-50.1116316319 100.8893597126 -10.9584416006 -0.5574550191 1
-46.5560796261 100.8893597126 -11.0133272213 -0.0633090195 1
-43.0005276203 100.8893597126 -10.0058250044 -0.2723496399 1
-39.4449756145 100.8893597126 -10.0017496975 -0.212110704 1
-35.8894236088 100.8893597126 -10.5042367591 -0.188510868 1
-32.333871603 100.8893597126 0 -0 0
-28.7783195972 100.8893597126 -11.0546960256 0.2956802708 1
-25.2227675915 100.8893597126 -10.3846366678 0.1052763756 1
-21.6672155857 100.8893597126 -10.667420869 -0.2825250197 1
-18.1116635799 100.8893597126 -11.0293062621 1.3315442469 1
-14.5561115742 100.8893597126 -10.5831833012 0.5691668727 1
-11.0005595684 100.8893597126 -9.9118795859 0.8739757737 1
-7.4450075626 100.8893597126 -11.2719087389 0.5069948151 1
-3.8894555569 100.8893597126 -10.2361242356 0.189546162 1
-0.3339035511 100.8893597126 0 -0 0
3.2216484547 100.8893597126 0 -0 0
6.7772004604 100.8893597126 -10.9809760718 0.3270584158 1
10.3327524662 100.8893597126 -10.4884739416 0.2854877077 1
13.888304472 100.8893597126 -10.7871884976 0.4807888446 1
17.4438564777 100.8893597126 0 -0 0
20.9994084835 100.8893597126 0 -0 0
24.5549604893 100.8893597126 0 -0 0
28.110512495 100.8893597126 0 -0 0
31.6660645008 100.8893597126 0 -0 0
35.2216165066 100.8893597126 -10.697120062 0.6503236172 1
38.7771685123 100.8893597126 -10.478517649 0.8755695252 1
42.3327205181 100.8893597126 0 -0 0
45.8882725239 100.8893597126 0 -0 0
49.4438245296 100.8893597126 -10.2471716681 0.6185201855 1
52.9993765354 100.8893597126 0 -0 0
-124.778223753 97.3338077068 -9.9364302314 0.2926116191 1
-121.2226717472 97.3338077068 -10.1353942759 -0.1369294534 1
-117.6671197414 97.3338077068 -10.1297123301 0.0346200616 1
-114.1115677357 97.3338077068 -9.706331472 -0.1833816517 1
-110.5560157299 97.3338077068 -9.7139451076 0.0712391143 1
-107.0004637241 97.3338077068 -9.0598712343 -0.0139199081 1
-103.4449117184 97.3338077068 -9.7557420625 -0.3139661701 1
-99.8893597126 97.3338077068 -10.0052364762 -0.1447750636 1
-96.3338077068 97.3338077068 -9.2587536581 0.1364869833 1
-92.7782557011 97.3338077068 -9.578898658 -0.2926431219 1
-89.2227036953 97.3338077068 -10.0444487759 -0.2077833753 1
-85.6671516895 97.3338077068 -9.8578509824 -0.2236206538 1
-82.1115996838 97.3338077068 -10.1320320761 0.0487719444 1
-78.556047678 97.3338077068 -9.5328001493 -0.1112962597 1
-75.0004956722 97.3338077068 -10.1723068767 -0.3971362251 1
-71.4449436665 97.3338077068 0 -0 0
-67.8893916607 97.3338077068 0 -0 0
-64.3338396549 97.3338077068 0 -0 0
-60.7782876492 97.3338077068 -10.2581904618 -0.4761407609 1
-57.2227356434 97.3338077068 -10.3455417874 -0.0642927637 1
-53.6671836376 97.3338077068 -10.1875771061 -0.0277768108 1
-50.1116316319 97.3338077068 -10.5337956218 -0.5528298464 1
-46.5560796261 97.3338077068 -9.5861586039 -1.048702768 1
-43.0005276203 97.3338077068 -10.712425374 -0.2681812567 1
-39.4449756145 97.3338077068 -10.3880661689 -0.3012147266 1
-35.8894236088 97.3338077068 -10.0335044432 -0.5101880457 1
-32.333871603 97.3338077068 0 -0 0
-28.7783195972 97.3338077068 -9.7629547544 -0.0549822768 1
-25.2227675915 97.3338077068 -10.7392728545 -0.38402966 1
-21.6672155857 97.3338077068 -10.6684747783 -0.4797621422 1
-18.1116635799 97.3338077068 -11.1081518523 -0.2113045207 1
-14.5561115742 97.3338077068 -10.44215205 0.4313739583 1
-11.0005595684 97.3338077068 -10.3716747289 0.3135652264 1
-7.4450075626 97.3338077068 -10.760762008 -0.3651323215 1
-3.8894555569 97.3338077068 -11.1800904702 -0.0989758308 1
-0.3339035511 97.3338077068 -10.4908566931 0.8016297683 1
3.2216484547 97.3338077068 -10.0394613219 0.3809796236 1
6.7772004604 97.3338077068 -11.3647000122 0.827557942 1
10.3327524662 97.3338077068 -10.793571379 0.6255209499 1
13.888304472 97.3338077068 -10.386506784 0.6000524296 1
17.4438564777 97.3338077068 0 -0 0
20.9994084835 97.3338077068 0 -0 0
24.5549604893 97.3338077068 0 -0 0
28.110512495 97.3338077068 0 -0 0
31.6660645008 97.3338077068 0 -0 0
35.2216165066 97.3338077068 -10.1502993601 -0.0774021927 1
38.7771685123 97.3338077068 -8.6997320945 0.2045786891 1
42.3327205181 97.3338077068 -9.9000417214 0.0735602923 1
45.8882725239 97.3338077068 -10.6208054293 -0.24420482 1
49.4438245296 97.3338077068 -10.615579557 0.9083624288 1
52.9993765354 97.3338077068 0 -0 0
-124.778223753 93.7782557011 -10.0702452109 -0.1919718718 1
-121.2226717472 93.7782557011 -9.6605680378 -0.0354462922 1
-117.6671197414 93.7782557011 -10.0402145234 -0.1911556648 1
-114.1115677357 93.7782557011 -9.7753095499 0.3200075334 1
-110.5560157299 93.7782557011 -9.6204163842 -0.2647073655 1
-107.0004637241 93.7782557011 -9.9938052833 -0.123582322 1
-103.4449117184 93.7782557011 -9.3876771238 -0.1062543919 1
-99.8893597126 93.7782557011 -10.2597527105 -0.4293892867 1
-96.3338077068 93.7782557011 -9.7077934848 -0.5019286043 1
-92.7782557011 93.7782557011 -9.6224225349 -0.6697923006 1
-89.2227036953 93.7782557011 -9.6852819247 -0.3602393757 1
-85.6671516895 93.7782557011 -9.8633711188 -0.23037942 1
-82.1115996838 93.7782557011 -10.1518702005 -0.2900871054 1
-78.556047678 93.7782557011 -9.8993457976 -0.28918355 1
-75.0004956722 93.7782557011 -9.9627020712 -0.0539255036 1
-71.4449436665 93.7782557011 0 -0 0
-67.8893916607 93.7782557011 0 -0 0
-64.3338396549 93.7782557011 0 -0 0
-60.7782876492 93.7782557011 0 -0 0
-57.2227356434 93.7782557011 -9.8957115288 -0.4114556451 1
-53.6671836376 93.7782557011 -10.3842027894 -1.1544345011 1
-50.1116316319 93.7782557011 -9.9146274825 0.0862745053 1
-46.5560796261 93.7782557011 -9.9328503764 -0.6033072337 1
-43.0005276203 93.7782557011 -10.1802885214 -0.5398349728 1
-39.4449756145 93.7782557011 -10.5749761257 -0.1189600133 1
-35.8894236088 93.7782557011 -10.1199149829 -0.4983616368 1
-32.333871603 93.7782557011 -10.8818319878 0.2928722326 1
-28.7783195972 93.7782557011 -10.2239498648 0.0001073956 1
-25.2227675915 93.7782557011 -9.9252897226 -0.2012895183 1
-21.6672155857 93.7782557011 -9.4372667071 -0.2801408363 1
-18.1116635799 93.7782557011 -11.379542091 0.5349978728 1
-14.5561115742 93.7782557011 -10.6887983311 -0.3255677642 1
-11.0005595684 93.7782557011 -10.7525591283 -0.4464093492 1
-7.4450075626 93.7782557011 -10.2232338938 0.4651119436 1
-3.8894555569 93.7782557011 0 -0 0
-0.3339035511 93.7782557011 -10.2365867529 0.6491551526 1
3.2216484547 93.7782557011 -10.7137785592 0.4338025319 1
6.7772004604 93.7782557011 -10.5387902355 0.7912710999 1
10.3327524662 93.7782557011 -10.5442158637 0.7186229546 1
13.888304472 93.7782557011 0 -0 0
17.4438564777 93.7782557011 0 -0 0
20.9994084835 93.7782557011 0 -0 0
24.5549604893 93.7782557011 0 -0 0
28.110512495 93.7782557011 0 -0 0
31.6660645008 93.7782557011 0 -0 0
35.2216165066 93.7782557011 -10.1997214062 0.8789875707 1
38.7771685123 93.7782557011 -10.0498128306 0.2214254867 1
42.3327205181 93.7782557011 -9.6499258449 0.4738367662 1
45.8882725239 93.7782557011 -9.6529014203 0.5894460352 1
49.4438245296 93.7782557011 -9.1096856325 0.2210259749 1
52.9993765354 93.7782557011 0 -0 0
-124.778223753 90.2227036953 -9.6606754334 0.1449726716 1
-121.2226717472 90.2227036953 -9.0986453597 -0.340409843 1
-117.6671197414 90.2227036953 -9.9036330319 0.0938938686 1
-114.1115677357 90.2227036953 -9.8988560734 -0.034167568 1
-110.5560157299 90.2227036953 -10.1735440746 -0.3081080954 1
-107.0004637241 90.2227036953 -10.2293182153 -0.0694377313 1
-103.4449117184 90.2227036953 -9.8569101965 -0.1072782305 1
-99.8893597126 90.2227036953 -10.3639164671 -0.2095217529 1
-96.3338077068 90.2227036953 -10.0193554243 -0.0579764675 1
-92.7782557011 90.2227036953 -9.9991994088 0.3870152591 1
-89.2227036953 90.2227036953 -9.2991086475 -0.2117197838 1
-85.6671516895 90.2227036953 -9.7162004163 -0.4270996114 1
-82.1115996838 90.2227036953 -9.630073401 0.1532793671 1
-78.556047678 90.2227036953 -10.0431242295 0.1047078946 1
-75.0004956722 90.2227036953 -10.0894690322 -0.1410233755 1
-71.4449436665 90.2227036953 0 -0 0
-67.8893916607 90.2227036953 0 -0 0
-64.3338396549 90.2227036953 -10.5991516024 -0.5680069996 1
-60.7782876492 90.2227036953 -9.8790150851 -0.6630020317 1
-57.2227356434 90.2227036953 -10.1183169357 -0.6804058547 1
-53.6671836376 90.2227036953 -10.0788153838 -0.0210180446 1
-50.1116316319 90.2227036953 -10.1797343598 -0.0288135368 1
-46.5560796261 90.2227036953 -10.5628167902 -0.4100609336 1
-43.0005276203 90.2227036953 -10.4269233469 0.2597872128 1
-39.4449756145 90.2227036953 0 -0 0
-35.8894236088 90.2227036953 0 -0 0
-32.333871603 90.2227036953 -9.2847691803 0.0176644365 1
-28.7783195972 90.2227036953 -10.840105914 0.1399465552 1
-25.2227675915 90.2227036953 -10.6099828117 0.2011434602 1
-21.6672155857 90.2227036953 -10.7029774207 0.0973720557 1
-18.1116635799 90.2227036953 -11.47856088 -0.6618034962 1
-14.5561115742 90.2227036953 -10.5859419375 -0.0643400178 1
-11.0005595684 90.2227036953 -10.9396588174 0.431157735 1
-7.4450075626 90.2227036953 -9.9530479182 0.0451691783 1
-3.8894555569 90.2227036953 -10.1191990119 0.2667349953 1
-0.3339035511 90.2227036953 -11.3851252328 -0.6731860031 1
3.2216484547 90.2227036953 -10.1470302366 0.540324697 1
6.7772004604 90.2227036953 -10.8764070756 0.743472876 1
10.3327524662 90.2227036953 -10.8241025303 0.6155503378 1
13.888304472 90.2227036953 -11.1443327307 0.723501581 1
17.4438564777 90.2227036953 0 -0 0
20.9994084835 90.2227036953 0 -0 0
24.5549604893 90.2227036953 0 -0 0
28.110512495 90.2227036953 0 -0 0
31.6660645008 90.2227036953 0 -0 0
35.2216165066 90.2227036953 -9.7563062477 0.3122507036 1