TITLE = "B00013"
VARIABLES = "x", "y", "Vx", "Vy", "isValid"
ZONE T="Frame 0", I=51, J=39, F=POINT
-124.778223753 125.778223753 -9.8749870323 -0.0352372286 1
-121.2226717472 125.778223753 -9.6433618227 0.2717754311 1
-117.6671197414 125.778223753 -9.8224920387 -0.1311415438 1
-114.1115677357 125.778223753 -9.6073241385 0.5020302722 1
-110.5560157299 125.778223753 -10.171434824 -0.1525705558 1
-107.0004637241 125.778223753 -10.0290911979 0.2210345665 1
-103.4449117184 125.778223753 -9.9771933242 0.4057235813 1
-99.8893597126 125.778223753 -10.3618759498 0.1629549992 1
-96.3338077068 125.778223753 -9.7775104448 -0.4214391447 1
-92.7782557011 125.778223753 -10.3595204052 -0.1407785135 1
-89.2227036953 125.778223753 -9.9957169258 -0.0641180668 1
-85.6671516895 125.778223753 -9.8387417165 -0.5053566734 1
-82.1115996838 125.778223753 -10.1912514693 -0.056704903 1
-78.556047678 125.778223753 -9.8608881314 -0.1492355629 1
-75.0004956722 125.778223753 -10.1428088716 -0.264495438 1
-71.4449436665 125.778223753 0 -0 0
-67.8893916607 125.778223753 0 -0 0
-64.3338396549 125.778223753 0 -0 0
-60.7782876492 125.778223753 0 -0 0
-57.2227356434 125.778223753 -10.2211604418 0.1431984954 1
-53.6671836376 125.778223753 -10.0119694675 0.8581771577 1
-50.1116316319 125.778223753 -10.5117966969 -0.3912953337 1
-46.5560796261 125.778223753 -10.5769070995 -0.6291294437 1
-43.0005276203 125.778223753 -10.6171611369 -0.2541654085 1
-39.4449756145 125.778223753 -10.5686354865 0.2801179252 1
-35.8894236088 125.778223753 -9.9269794142 -0.0223740937 1
-32.333871603 125.778223753 -10.8756782171 -0.6134281998 1
-28.7783195972 125.778223753 -10.6243165511 -0.2985441548 1
-25.2227675915 125.778223753 -9.6061470822 0.3248747042 1
-21.6672155857 125.778223753 -9.8458799473 -0.1467797824 1
-18.1116635799 125.778223753 -10.5424245043 -0.2434444588 1
-14.5561115742 125.778223753 -10.796386577 1.0822889675 1
-11.0005595684 125.778223753 -9.7598903985 -0.0809963671 1
-7.4450075626 125.778223753 -10.3254945995 0.5562049337 1
-3.8894555569 125.778223753 -9.9877223937 0.2592573942 1
-0.3339035511 125.778223753 -10.2819206045 -0.2479622358 1
3.2216484547 125.778223753 -10.956258605 0.1878221039 1
6.7772004604 125.778223753 -10.2466590329 0.3309303869 1
10.3327524662 125.778223753 0 -0 0
13.888304472 125.778223753 0 -0 0
17.4438564777 125.778223753 0 -0 0
20.9994084835 125.778223753 0 -0 0
24.5549604893 125.778223753 0 -0 0
28.110512495 125.778223753 0 -0 0
31.6660645008 125.778223753 0 -0 0
35.2216165066 125.778223753 0 -0 0
38.7771685123 125.778223753 -9.8610112784 0.5910297631 1
42.3327205181 125.778223753 -10.3604769424 0.7144144771 1
45.8882725239 125.778223753 -10.867928547 0.7490130596 1
49.4438245296 125.778223753 -10.1240933897 0.4000115647 1
52.9993765354 125.778223753 0 -0 0
-124.778223753 122.2226717472 -9.6750449714 -0.465079009 1
-121.2226717472 122.2226717472 -10.4125308979 0.4719537625 1
-117.6671197414 122.2226717472 -9.922169521 0.0486215905 1
-114.1115677357 122.2226717472 -10.041136694 0.0360362523 1
-110.5560157299 122.2226717472 -9.7872676975 -0.1798562105 1
-107.0004637241 122.2226717472 -9.9979206846 -0.2266005251 1
-103.4449117184 122.2226717472 -9.722354903 0.2708733077 1
-99.8893597126 122.2226717472 -9.4101843881 -0.4220348326 1
-96.3338077068 122.2226717472 -9.7364180053 -0.1109067715 1
-92.7782557011 122.2226717472 -9.767408094 -0.606264194 1
-89.2227036953 122.2226717472 -9.7154686939 -0.1594309899 1
-85.6671516895 122.2226717472 -9.4308372875 0.2084764352 1
-82.1115996838 122.2226717472 -9.826558754 -0.1477220002 1
-78.556047678 122.2226717472 -10.1360901997 -0.3661547281 1
-75.0004956722 122.2226717472 -9.9921241834 -0.1102380546 1
-71.4449436665 122.2226717472 0 -0 0
-67.8893916607 122.2226717472 0 -0 0
-64.3338396549 122.2226717472 0 -0 0
-60.7782876492 122.2226717472 0 -0 0
-57.2227356434 122.2226717472 -9.9628739042 -0.1785774863 1
-53.6671836376 122.2226717472 -10.9654094303 0.5472066102 1
-50.1116316319 122.2226717472 -11.2383468824 -0.1555361077 1
-46.5560796261 122.2226717472 -10.9843232362 0.0038948822 1
-43.0005276203 122.2226717472 -9.9682322312 -0.0906276089 1
-39.4449756145 122.2226717472 -10.5728733189 0.8952759109 1
-35.8894236088 122.2226717472 -9.8351575656 0.3617801453 1
-32.333871603 122.2226717472 -10.7851243532 -0.0627233553 1
-28.7783195972 122.2226717472 -11.0652866686 0.1689992263 1
-25.2227675915 122.2226717472 -11.3656765967 0.9973576239 1
-21.6672155857 122.2226717472 -9.8779497203 -0.5130104034 1
-18.1116635799 122.2226717472 -11.1444916762 0.7150058691 1
-14.5561115742 122.2226717472 0 -0 0
-11.0005595684 122.2226717472 -10.647275593 0.1724817093 1
-7.4450075626 122.2226717472 -10.5414830024 0.2919801327 1
-3.8894555569 122.2226717472 -10.7832341897 -0.0514396523 1
-0.3339035511 122.2226717472 -10.9916812701 0.5489994016 1
3.2216484547 122.2226717472 -10.4368481369 0.1784400199 1
6.7772004604 122.2226717472 -10.350267196 0.7042748958 1
10.3327524662 122.2226717472 -10.4222036661 0.3418618321 1
13.888304472 122.2226717472 0 -0 0
17.4438564777 122.2226717472 0 -0 0
20.9994084835 122.2226717472 0 -0 0
24.5549604893 122.2226717472 0 -0 0
28.110512495 122.2226717472 0 -0 0
31.6660645008 122.2226717472 0 -0 0
35.2216165066 122.2226717472 0 -0 0
38.7771685123 122.2226717472 -10.0130090574 1.3240795333 1
42.3327205181 122.2226717472 -9.5523891158 0.2878532759 1
45.8882725239 122.2226717472 -10.9099238259 0.6215387192 1
49.4438245296 122.2226717472 -9.4489570815 0.1532593199 1
52.9993765354 122.2226717472 0 -0 0
-124.778223753 118.6671197414 -10.0189716639 0.7795263116 1
-121.2226717472 118.6671197414 -10.2367184915 -0.2046159196 1
-117.6671197414 118.6671197414 -9.4836172375 0.2277661258 1
-114.1115677357 118.6671197414 -10.0044975942 0.1650728414 1
-110.5560157299 118.6671197414 -9.8801176804 -0.4792623944 1
-107.0004637241 118.6671197414 -10.2168001784 0.2833097239 1
-103.4449117184 118.6671197414 -9.6750020131 -0.1412195516 1
-99.8893597126 118.6671197414 -9.8553064215 -0.2933275901 1
-96.3338077068 118.6671197414 -10.3354537561 -0.3227625898 1
-92.7782557011 118.6671197414 -9.8943254089 -0.2079680958 1
-89.2227036953 118.6671197414 -10.2160498408 -0.5687301304 1
-85.6671516895 118.6671197414 -10.0249571814 -0.3090431535 1
-82.1115996838 118.6671197414 0 -0 0
-78.556047678 118.6671197414 -10.830430282 0.0954002716 1
-75.0004956722 118.6671197414 -9.8802207803 -0.0653395133 1
-71.4449436665 118.6671197414 0 -0 0
-67.8893916607 118.6671197414 0 -0 0
-64.3338396549 118.6671197414 0 -0 0
-60.7782876492 118.6671197414 0 -0 0
-57.2227356434 118.6671197414 -9.9846924044 0.2888427478 1
-53.6671836376 118.6671197414 -10.511152323 -0.0326010234 1
-50.1116316319 118.6671197414 -10.7413914127 -0.4514154184 1
-46.5560796261 118.6671197414 -10.3213791982 -0.3204313882 1
-43.0005276203 118.6671197414 -10.6357169573 -0.0919321081 1
-39.4449756145 118.6671197414 -10.5861624566 -0.3906409362 1
-35.8894236088 118.6671197414 -10.8956717072 -0.3392342186 1
-32.333871603 118.6671197414 -9.9193213884 -0.0523890299 1
-28.7783195972 118.6671197414 -10.7601877993 0.6232685052 1
-25.2227675915 118.6671197414 -10.0488076073 -0.3729049027 1
-21.6672155857 118.6671197414 -10.4095696418 0.3885173663 1
-18.1116635799 118.6671197414 -10.0957910561 0.7255177553 1
-14.5561115742 118.6671197414 -10.1618708834 0.5686341902 1
-11.0005595684 118.6671197414 -10.8012924103 0.8387299534 1
-7.4450075626 118.6671197414 -10.7681157462 0.3881063989 1
-3.8894555569 118.6671197414 -10.9345224415 1.0300502916 1
-0.3339035511 118.6671197414 0 -0 0
3.2216484547 118.6671197414 -10.5797903147 -0.5461197662 1
6.7772004604 118.6671197414 -10.0361206012 0.3566222902 1
10.3327524662 118.6671197414 -9.6189214368 0.7413106436 1
13.888304472 118.6671197414 0 -0 0
17.4438564777 118.6671197414 0 -0 0
20.9994084835 118.6671197414 0 -0 0
24.5549604893 118.6671197414 0 -0 0
28.110512495 118.6671197414 0 -0 0
31.6660645008 118.6671197414 0 -0 0
35.2216165066 118.6671197414 0 -0 0
38.7771685123 118.6671197414 -9.9203094284 -0.4498875363 1
42.3327205181 118.6671197414 -10.8718320209 -0.0529016651 1
45.8882725239 118.6671197414 -10.0622478149 0.3115819867 1
49.4438245296 118.6671197414 -11.1887716186 -0.0977472245 1
52.9993765354 118.6671197414 0 -0 0
-124.778223753 115.1115677357 -10.1612222137 0.0394714811 1
-121.2226717472 115.1115677357 -9.8025493825 0.3866400903 1
-117.6671197414 115.1115677357 -10.0469460827 -0.1773159454 1
-114.1115677357 115.1115677357 -10.1120650769 -0.0658048944 1
-110.5560157299 115.1115677357 -10.1206925274 -0.3396881442 1
-107.0004637241 115.1115677357 -10.3598340005 0.0819457446 1
-103.4449117184 115.1115677357 -9.8572352473 0.0615820975 1
-99.8893597126 115.1115677357 -10.1687599564 -0.3249162306 1
-96.3338077068 115.1115677357 -9.5866368725 -0.1283750319 1
-92.7782557011 115.1115677357 -10.2989521226 -0.2824233518 1
-89.2227036953 115.1115677357 -9.6740569314 -0.1377270451 1
-85.6671516895 115.1115677357 -10.2061808965 -0.0417010148 1
-82.1115996838 115.1115677357 -10.5337634031 0.3433983059 1
-78.556047678 115.1115677357 -10.2063684809 -0.1282074947 1
-75.0004956722 115.1115677357 -9.8117037877 -0.3003040115 1
-71.4449436665 115.1115677357 0 -0 0
-67.8893916607 115.1115677357 0 -0 0
-64.3338396549 115.1115677357 0 -0 0
-60.7782876492 115.1115677357 -9.9365963366 -0.4595130504 1
-57.2227356434 115.1115677357 -9.9515930652 0.2251972219 1
-53.6671836376 115.1115677357 -10.0244703211 -0.4619344643 1
-50.1116316319 115.1115677357 -10.3352790591 -0.2867062903 1
-46.5560796261 115.1115677357 -10.1978240831 -0.3870353063 1
-43.0005276203 115.1115677357 -11.3747357777 0.0248699686 1
-39.4449756145 115.1115677357 -10.2882068299 -0.2737400556 1
-35.8894236088 115.1115677357 -10.2827697461 0.2070086947 1
-32.333871603 115.1115677357 0 -0 0
-28.7783195972 115.1115677357 -10.8264272881 0.2984696938 1
-25.2227675915 115.1115677357 -10.0255256624 -0.3546261631 1
-21.6672155857 115.1115677357 0 -0 0
-18.1116635799 115.1115677357 -10.5347657625 0.8094782423 1
-14.5561115742 115.1115677357 -9.4289270769 0.7038868395 1
-11.0005595684 115.1115677357 -10.5113305998 0.8446510336 1
-7.4450075626 115.1115677357 -11.0899124911 0.6546538098 1
-3.8894555569 115.1115677357 -10.9353049978 -0.2748140121 1
-0.3339035511 115.1115677357 -9.6668141688 0.0205097052 1
3.2216484547 115.1115677357 -11.3470362917 0.0357756388 1
6.7772004604 115.1115677357 -10.0835422243 -0.371119271 1
10.3327524662 115.1115677357 -10.0746512964 0.6442707984 1
13.888304472 115.1115677357 0 -0 0
17.4438564777 115.1115677357 0 -0 0
20.9994084835 115.1115677357 0 -0 0
24.5549604893 115.1115677357 0 -0 0
28.110512495 115.1115677357 0 -0 0
31.6660645008 115.1115677357 0 -0 0
35.2216165066 115.1115677357 0 -0 0
38.7771685123 115.1115677357 -9.3136958406 0.5929714764 1
42.3327205181 115.1115677357 -9.6144910082 0.2855149146 1
45.8882725239 115.1115677357 -9.7506157102 -0.2125674935 1
49.4438245296 115.1115677357 -10.2127506464 0.8789231333 1
52.9993765354 115.1115677357 0 -0 0
-124.778223753 111.5560157299 -10.0124176653 -0.2354112642 1
-121.2226717472 111.5560157299 -9.6068072075 0.0847065288 1
-117.6671197414 111.5560157299 -9.8248604707 0.0231144077 1
-114.1115677357 111.5560157299 -9.5477095293 -0.475470612 1
-110.5560157299 111.5560157299 -9.9816309124 -0.0301896331 1
-107.0004637241 111.5560157299 -9.8306154456 -0.2615570931 1
-103.4449117184 111.5560157299 -9.8790609072 -0.6336644041 1
-99.8893597126 111.5560157299 -9.7614870138 0.3731411731 1
-96.3338077068 111.5560157299 -9.9713051787 -0.0955692408 1
-92.7782557011 111.5560157299 -9.8644321878 -0.8343410512 1
-89.2227036953 111.5560157299 -10.2671902172 -0.2619952673 1
-85.6671516895 111.5560157299 -10.2754854572 0.3402480335 1
-82.1115996838 111.5560157299 -9.8675452297 -0.1121368097 1
-78.556047678 111.5560157299 -9.8668521698 -0.4911274658 1
-75.0004956722 111.5560157299 -10.2282070283 0.1635105926 1
-71.4449436665 111.5560157299 0 -0 0
-67.8893916607 111.5560157299 0 -0 0
-64.3338396549 111.5560157299 0 -0 0
-60.7782876492 111.5560157299 -10.6416802797 0.0390075319 1
-57.2227356434 111.5560157299 -10.3551357988 -0.3245482215 1
-53.6671836376 111.5560157299 -10.0328715248 0.3709918282 1
-50.1116316319 111.5560157299 -9.9432591628 0.0128015614 1
-46.5560796261 111.5560157299 -10.1376223777 -0.6476530454 1
-43.0005276203 111.5560157299 -10.1636894497 0.1297983822 1
-39.4449756145 111.5560157299 -10.3323865363 0.003949296 1
-35.8894236088 111.5560157299 -10.3610640387 0.5746655299 1
-32.333871603 111.5560157299 0 -0 0
-28.7783195972 111.5560157299 -10.5564160095 -0.0782670856 1
-25.2227675915 111.5560157299 -10.3930192562 0.5532866359 1
-21.6672155857 111.5560157299 -10.8379329421 -0.5337220124 1
-18.1116635799 111.5560157299 -9.7822644922 0.7313443273 1
-14.5561115742 111.5560157299 -10.1745163632 -0.3109476364 1
-11.0005595684 111.5560157299 -10.3184050547 0.7349055671 1
-7.4450075626 111.5560157299 -10.7058613519 0.4068132891 1
-3.8894555569 111.5560157299 -10.6859179798 0.0542892169 1
-0.3339035511 111.5560157299 -10.2338732228 -0.1458934103 1
3.2216484547 111.5560157299 -9.8811271995 0.2503220762 1
6.7772004604 111.5560157299 -10.5367933924 0.2507487949 1
10.3327524662 111.5560157299 -10.9157597055 -0.0110775033 1
13.888304472 111.5560157299 0 -0 0
17.4438564777 111.5560157299 0 -0 0
20.9994084835 111.5560157299 0 -0 0
24.5549604893 111.5560157299 0 -0 0
28.110512495 111.5560157299 0 -0 0
31.6660645008 111.5560157299 0 -0 0
35.2216165066 111.5560157299 0 -0 0
38.7771685123 111.5560157299 -10.3352174856 0.5470261855 1
42.3327205181 111.5560157299 -10.223105019 0.3535722538 1
45.8882725239 111.5560157299 -10.2528106557 0.2500199364 1
49.4438245296 111.5560157299 -9.9858222066 0.8653497551 1
52.9993765354 111.5560157299 0 -0 0
-124.778223753 108.0004637241 -9.7788034884 0.6792173428 1
-121.2226717472 108.0004637241 -10.2200492548 -0.3282827262 1
-117.6671197414 108.0004637241 -10.424699541 -0.2088301249 1
-114.1115677357 108.0004637241 -10.0075777014 -0.4640179399 1
-110.5560157299 108.0004637241 -9.6712803958 -0.2852199345 1
-107.0004637241 108.0004637241 -10.7626478756 -0.7985138625 1
-103.4449117184 108.0004637241 -9.7694743863 0.1530989424 1
-99.8893597126 108.0004637241 -9.7130501439 0.3339976067 1
-96.3338077068 108.0004637241 -10.6418277697 -0.2310896632 1
-92.7782557011 108.0004637241 -10.3855259038 0.1656570737 1
-89.2227036953 108.0004637241 -10.1052690802 0.1114566372 1
-85.6671516895 108.0004637241 -10.0066927612 0.0172119428 1
-82.1115996838 108.0004637241 -10.4280116228 -0.8415265361 1
-78.556047678 108.0004637241 -9.8539532363 -0.1248997087 1
-75.0004956722 108.0004637241 -10.1414098642 -0.1051747077 1
-71.4449436665 108.0004637241 0 -0 0
-67.8893916607 108.0004637241 0 -0 0
-64.3338396549 108.0004637241 0 -0 0
-60.7782876492 108.0004637241 -10.6950294267 -0.583354554 1
-57.2227356434 108.0004637241 0 -0 0
-53.6671836376 108.0004637241 0 -0 0
-50.1116316319 108.0004637241 -10.4300363888 -0.218628904 1
-46.5560796261 108.0004637241 -9.7303623226 -0.8677138914 1
-43.0005276203 108.0004637241 -10.4242742542 0.2024594149 1
-39.4449756145 108.0004637241 -10.5418982656 -0.2684332785 1
-35.8894236088 108.0004637241 -10.8465897474 0.2051915603 1
-32.333871603 108.0004637241 -10.2050052722 0.9747085973 1
-28.7783195972 108.0004637241 -10.4797390955 -0.4796289716 1
-25.2227675915 108.0004637241 -10.5199465948 -0.3510534678 1
-21.6672155857 108.0004637241 -11.2035471121 0.1096194556 1
-18.1116635799 108.0004637241 -10.6407888958 -0.2389667761 1
-14.5561115742 108.0004637241 -10.7221955143 0.1782338203 1
-11.0005595684 108.0004637241 -10.2197127484 0.6384513861 1
-7.4450075626 108.0004637241 -10.2759980924 0.4984403936 1
-3.8894555569 108.0004637241 -10.8527592695 0.6961758319 1
-0.3339035511 108.0004637241 -10.7075560553 0.3070871208 1
3.2216484547 108.0004637241 -9.8209569969 -0.1508651129 1
6.7772004604 108.0004637241 -9.9386253985 0.5392364211 1
10.3327524662 108.0004637241 -10.5251080297 0.7481782374 1
13.888304472 108.0004637241 0 -0 0
17.4438564777 108.0004637241 0 -0 0
20.9994084835 108.0004637241 0 -0 0
24.5549604893 108.0004637241 0 -0 0
28.110512495 108.0004637241 0 -0 0
31.6660645008 108.0004637241 0 -0 0
35.2216165066 108.0004637241 -9.3375978164 0.2540093268 1
38.7771685123 108.0004637241 -10.7255663057 1.3587081866 1
42.3327205181 108.0004637241 -10.1041836682 0.8533386257 1
45.8882725239 108.0004637241 -9.5320054215 0.8398397085 1
49.4438245296 108.0004637241 -10.0677794068 -0.0756781345 1
52.9993765354 108.0004637241 0 -0 0
-124.778223753 104.4449117184 -9.4678171896 0.4228682228 1
-121.2226717472 104.4449117184 -10.0746212256 -0.247658664 1
-117.6671197414 104.4449117184 -10.0024943073 0.1643139121 1
-114.1115677357 104.4449117184 -10.4844888471 -0.6395725967 1
-110.5560157299 104.4449117184 -10.7143864186 0.0107495886 1
-107.0004637241 104.4449117184 -10.3454258001 0.5376197585 1
-103.4449117184 104.4449117184 -10.6327800442 0.3011846559 1
-99.8893597126 104.4449117184 -9.3721849434 0.117757182 1
-96.3338077068 104.4449117184 -10.0567806603 0.1062543919 1
-92.7782557011 104.4449117184 -9.9511076368 -0.3240470418 1
-89.2227036953 104.4449117184 -10.0984215336 -0.0073172236 1
-85.6671516895 104.4449117184 -10.2091106499 0.0363856461 1
-82.1115996838 104.4449117184 -9.4006404947 -0.2689000916 1
-78.556047678 104.4449117184 -9.936093725 -0.5696938273 1
-75.0004956722 104.4449117184 -9.127569156 0.1376368327 1
-71.4449436665 104.4449117184 0 -0 0
-67.8893916607 104.4449117184 0 -0 0
-64.3338396549 104.4449117184 0 -0 0
-60.7782876492 104.4449117184 -10.7236023973 -0.0280660631 1
-57.2227356434 104.4449117184 -10.1777167535 -0.4382730548 1
-53.6671836376 104.4449117184 -9.7681784788 -0.6645112985 1
-50.1116316319 104.4449117184 -10.4606069185 -0.7709833456 1
-46.5560796261 104.4449117184 0 -0 0
-43.0005276203 104.4449117184 -10.2955312132 -0.4681906189 1
-39.4449756145 104.4449117184 -10.100978982 -0.4230386239 1
-35.8894236088 104.4449117184 -10.3423270776 0.3808779557 1
-32.333871603 104.4449117184 -10.6319294707 -0.6648506688 1
-28.7783195972 104.4449117184 -10.7399623346 0.6491394012 1
-25.2227675915 104.4449117184 -11.1827288234 -0.3251711162 1
-21.6672155857 104.4449117184 -10.9022729598 -0.5521869045 1
-18.1116635799 104.4449117184 -11.5416744395 0.6565797718 1
-14.5561115742 104.4449117184 -10.2129167517 -0.1644699938 1
-11.0005595684 104.4449117184 -10.2279063205 -0.2433972047 1
-7.4450075626 104.4449117184 -11.1446756808 0.7230390637 1
-3.8894555569 104.4449117184 -10.4852119778 -0.1396229363 1
-0.3339035511 104.4449117184 0 -0 0
3.2216484547 104.4449117184 -10.1942843224 0.2845340343 1
6.7772004604 104.4449117184 -11.0069336003 -0.0042027498 1
10.3327524662 104.4449117184 -9.7981962788 0.8241470561 1
13.888304472 104.4449117184 -10.5974046332 -0.4225947219 1
17.4438564777 104.4449117184 0 -0 0
20.9994084835 104.4449117184 0 -0 0
24.5549604893 104.4449117184 0 -0 0
28.110512495 104.4449117184 0 -0 0
31.6660645008 104.4449117184 0 -0 0
35.2216165066 104.4449117184 -10.6766389956 1.0328511701 1
38.7771685123 104.4449117184 -10.0366604433 0.0533870934 1
42.3327205181 104.4449117184 -10.1963534786 0.3136625984 1
45.8882725239 104.4449117184 -9.1738667047 0.3251711162 1
49.4438245296 104.4449117184 0 -0 0
52.9993765354 104.4449117184 0 -0 0
-124.778223753 100.8893597126 -9.6579146493 -0.3656607081 1
-121.2226717472 100.8893597126 -10.0383186322 -0.1832456172 1
-117.6671197414 100.8893597126 -9.8454861633 -0.2971551711 1
-114.1115677357 100.8893597126 -9.8523652126 -0.3088870719 1
-110.5560157299 100.8893597126 -10.1971181356 -0.2112644263 1
-107.0004637241 100.8893597126 -10.0301708822 -0.3558046514 1
-103.4449117184 100.8893597126 -9.9050936127 -0.3443405237 1
-99.8893597126 100.8893597126 -9.7791901127 -0.0893130862 1
-96.3338077068 100.8893597126 -9.6909481192 0.0706248112 1
-92.7782557011 100.8893597126 -10.3027295856 0.5296910957 1
-89.2227036953 100.8893597126 -9.7741883393 0.1949818138 1
-85.6671516895 100.8893597126 -8.8254580337 -0.0966918833 1
-82.1115996838 100.8893597126 -10.2243021225 -0.2843034917 1
-78.556047678 100.8893597126 -9.4357832152 0.1273898558 1
-75.0004956722 100.8893597126 -10.3500108784 -0.1522283217 1
-71.4449436665 100.8893597126 0 -0 0
-67.8893916607 100.8893597126 0 -0 0
-64.3338396549 100.8893597126 0 -0 0
-60.7782876492 100.8893597126 -9.5363241585 -0.0420976627 1
-57.2227356434 100.8893597126 -10.1413883851 0.1926491803 1
-53.6671836376 100.8893597126 -10.2068195427 0.3630889403 1
-50.1116316319 100.8893597126 -10.8797256012 -0.3877999633 1
-46.5560796261 100.8893597126 -10.1567788977 -0.2351964729 1
-43.0005276203 100.8893597126 -10.7763265016 -0.3486993552 1
-39.4449756145 100.8893597126 -10.5913833171 0.0760719185 1
-35.8894236088 100.8893597126 -11.0047241138 0.0807686883 1
-32.333871603 100.8893597126 -10.7309547034 0.0586050901 1
-28.7783195972 100.8893597126 -11.1014639672 0.696914714 1
-25.2227675915 100.8893597126 -11.2785994879 0.0641510014 1
-21.6672155857 100.8893597126 -10.4477824459 0.0597263007 1
-18.1116635799 100.8893597126 -10.4197278384 -0.0710185952 1
-14.5561115742 100.8893597126 -11.0284478128 0.079418367 1
-11.0005595684 100.8893597126 -10.9545008962 -0.125237647 1
-7.4450075626 100.8893597126 -9.600870376 0.447254195 1
-3.8894555569 100.8893597126 -9.7754985663 -0.0583473405 1
-0.3339035511 100.8893597126 -10.7017788853 0.340235146 1
3.2216484547 100.8893597126 -10.9792312505 0.034661588 1
6.7772004604 100.8893597126 -10.3643317303 0.7904105027 1
10.3327524662 100.8893597126 -10.3543582543 -0.2171998259 1
13.888304472 100.8893597126 -10.5862698522 0.6640960354 1
17.4438564777 100.8893597126 0 -0 0
20.9994084835 100.8893597126 0 -0 0
24.5549604893 100.8893597126 0 -0 0
28.110512495 100.8893597126 0 -0 0
31.6660645008 100.8893597126 0 -0 0
35.2216165066 100.8893597126 -10.0280945663 0.2489645951 1
38.7771685123 100.8893597126 -10.4497127038 1.3947344153 1
42.3327205181 100.8893597126 -10.5423829779 0.8479201572 1
45.8882725239 100.8893597126 -9.4704548267 0.180709648 1
49.4438245296 100.8893597126 -10.5597524344 -0.3340734996 1
52.9993765354 100.8893597126 0 -0 0
-124.778223753 97.3338077068 -9.9012889428 0.0828020459 1
-121.2226717472 97.3338077068 -9.8801720942 -0.1592763402 1
-117.6671197414 97.3338077068 -9.6037285322 -0.2011463241 1
-114.1115677357 97.3338077068 -9.9837917129 -0.2489774826 1
-110.5560157299 97.3338077068 -9.7805074994 0.0283051974 1
-107.0004637241 97.3338077068 -9.8694110501 0.2858242141 1
-103.4449117184 97.3338077068 -10.1533551244 -0.2904350673 1
-99.8893597126 97.3338077068 -9.6446119081 0.3648888914 1
-96.3338077068 97.3338077068 -9.3099183776 0.2198575102 1
-92.7782557011 97.3338077068 -9.9473960432 -0.0158644854 1
-89.2227036953 97.3338077068 -9.397176627 -0.2351148522 1
-85.6671516895 97.3338077068 -10.3206890021 -0.346900836 1
-82.1115996838 97.3338077068 -9.6020574559 0.3677012255 1
-78.556047678 97.3338077068 -9.8630532277 -0.2731973495 1
-75.0004956722 97.3338077068 -10.207133138 -0.6227028881 1
-71.4449436665 97.3338077068 0 -0 0
-67.8893916607 97.3338077068 0 -0 0
-64.3338396549 97.3338077068 0 -0 0
-60.7782876492 97.3338077068 -10.0406340824 -0.423578466 1
-57.2227356434 97.3338077068 -10.1792589551 -0.5830366628 1
-53.6671836376 97.3338077068 -9.9317334616 -0.2305985071 1
-50.1116316319 97.3338077068 -10.1102221676 -0.0131437956 1
-46.5560796261 97.3338077068 -10.2584295961 -0.2568417081 1
-43.0005276203 97.3338077068 -10.829070653 0.0515857104 1
-39.4449756145 97.3338077068 -11.282743528 -0.6515622471 1
-35.8894236088 97.3338077068 -10.8846400261 -0.6885178061 1
-32.333871603 97.3338077068 -10.731755159 -0.4503958757 1
-28.7783195972 97.3338077068 -11.0689137777 -0.144394167 1
-25.2227675915 97.3338077068 -9.9434725221 -0.3820335329 1
-21.6672155857 97.3338077068 -9.7938202641 0.1355676765 1
-18.1116635799 97.3338077068 -10.6701637539 -0.216850432 1
-14.5561115742 97.3338077068 -10.6523496795 0.8504503987 1
-11.0005595684 97.3338077068 -10.5214064596 -0.2723811426 1
-7.4450075626 97.3338077068 -10.0829451045 0.2477546042 1
-3.8894555569 97.3338077068 -10.6390841689 0.3959849438 1
-0.3339035511 97.3338077068 -11.6206567801 0.4622695388 1
3.2216484547 97.3338077068 -10.7293222896 -0.3579697477 1
6.7772004604 97.3338077068 -11.1050001479 0.2589108643 1
10.3327524662 97.3338077068 -10.3206259967 0.3832177489 1
13.888304472 97.3338077068 -10.1644498109 0.5867768953 1
17.4438564777 97.3338077068 0 -0 0
20.9994084835 97.3338077068 0 -0 0
24.5549604893 97.3338077068 0 -0 0
28.110512495 97.3338077068 0 -0 0
31.6660645008 97.3338077068 0 -0 0
35.2216165066 97.3338077068 -10.4769926307 0.7923393286 1
38.7771685123 97.3338077068 -9.8887136282 0.1012311394 1
42.3327205181 97.3338077068 0 -0 0
45.8882725239 97.3338077068 -10.3957628571 0.554372048 1
49.4438245296 97.3338077068 -10.042518518 0.5523744889 1
52.9993765354 97.3338077068 0 -0 0
-124.778223753 93.7782557011 -9.9444018525 0.2320490644 1
-121.2226717472 93.7782557011 -10.3413218544 -0.0870592095 1
-117.6671197414 93.7782557011 -9.7646888361 0.2549630002 1
-114.1115677357 93.7782557011 -10.0710671456 -0.137433497 1
-110.5560157299 93.7782557011 -9.6996987167 -0.5631383969 1
-107.0004637241 93.7782557011 -10.0961519055 -0.3403654528 1
-103.4449117184 93.7782557011 -9.957645884 -0.3319442019 1
-99.8893597126 93.7782557011 -9.9883724953 -0.1990714402 1
-96.3338077068 93.7782557011 -9.9620849042 -0.4952442991 1
-92.7782557011 93.7782557011 -9.5207374699 -0.3100498088 1
-89.2227036953 93.7782557011 -10.2796180418 -0.099810653 1
-85.6671516895 93.7782557011 -9.6097971024 0.5010694391 1
-82.1115996838 93.7782557011 -10.0534012772 -0.306119128 1
-78.556047678 93.7782557011 -10.0153130521 -0.4555680502 1
-75.0004956722 93.7782557011 -10.3850404754 -0.735203411 1
-71.4449436665 93.7782557011 0 -0 0
-67.8893916607 93.7782557011 0 -0 0
-64.3338396549 93.7782557011 0 -0 0
-60.7782876492 93.7782557011 -9.6809903945 -0.7455348725 1
-57.2227356434 93.7782557011 -9.9459769887 -0.4120413094 1
-53.6671836376 93.7782557011 -9.9187214047 0.1938076214 1
-50.1116316319 93.7782557011 -10.2784581688 0.2757891646 1
-46.5560796261 93.7782557011 -10.604370315 -0.6811032104 1
-43.0005276203 93.7782557011 -10.7713877336 -0.3754508955 1
-39.4449756145 93.7782557011 -10.3123121415 0.1544492637 1
-35.8894236088 93.7782557011 -10.2086595881 0.0877293583 1
-32.333871603 93.7782557011 -9.5783731353 -0.0887932912 1
-28.7783195972 93.7782557011 -10.2848603815 -0.1625325763 1
-25.2227675915 93.7782557011 -11.6628088567 -0.8906908326 1
-21.6672155857 93.7782557011 -10.3436186893 -0.1379146295 1
-18.1116635799 93.7782557011 -10.9776024164 -0.3852439469 1
-14.5561115742 93.7782557011 -11.3746083349 0.7391670264 1
-11.0005595684 93.7782557011 -11.4832683893 0.6702748651 1
-7.4450075626 93.7782557011 -10.3251638209 -0.3870968798 1
-3.8894555569 93.7782557011 -11.4109982768 -0.0261744677 1
-0.3339035511 93.7782557011 -10.6748905944 0.7259788407 1
3.2216484547 93.7782557011 -10.8875583239 0.3287796101 1
6.7772004604 93.7782557011 -10.3344642841 -0.062654622 1
10.3327524662 93.7782557011 -10.3019677925 0.0380509947 1
13.888304472 93.7782557011 -11.081766889 -0.2284305469 1
17.4438564777 93.7782557011 0 -0 0
20.9994084835 93.7782557011 0 -0 0
24.5549604893 93.7782557011 0 -0 0
28.110512495 93.7782557011 0 -0 0
31.6660645008 93.7782557011 0 -0 0
35.2216165066 93.7782557011 -10.1357307823 0.7915116661 1
38.7771685123 93.7782557011 -9.2889074927 -0.0786093198 1
42.3327205181 93.7782557011 -9.4842744989 0.2386531808 1
45.8882725239 93.7782557011 -11.1445682851 0.0350926025 1
49.4438245296 93.7782557011 0 -0 0
52.9993765354 93.7782557011 0 -0 0
-124.778223753 90.2227036953 -9.8913484015 -0.2291551096 1
-121.2226717472 90.2227036953 -9.9172150017 0.3857222155 1
-117.6671197414 90.2227036953 -10.0249127912 -0.1979917559 1
-114.1115677357 90.2227036953 -9.7292038815 0.0962608687 1
-110.5560157299 90.2227036953 -9.5889380033 0.2133837004 1
-107.0004637241 90.2227036953 -9.7007655135 -0.1698483679 1
-103.4449117184 90.2227036953 -10.1037326064 0.2645856504 1
-99.8893597126 90.2227036953 -9.6735686392 -0.1623335363 1
-96.3338077068 90.2227036953 -10.0772889336 -0.267877685 1
-92.7782557011 90.2227036953 -10.2185543073 -0.3238036116 1
-89.2227036953 90.2227036953 -10.0208217329 -0.2188866535 1
-85.6671516895 90.2227036953 -9.8484903776 -0.3071687415 1
-82.1115996838 90.2227036953 -9.709418739 0.2219825121 1
-78.556047678 90.2227036953 -9.9943121907 0.1290093822 1
-75.0004956722 90.2227036953 -10.5916775812 -0.3074694493 1
-71.4449436665 90.2227036953 0 -0 0
-67.8893916607 90.2227036953 0 -0 0
-64.3338396549 90.2227036953 -9.3725758635 -0.5595585419 1
-60.7782876492 90.2227036953 -9.9074205185 -0.3518553553 1
-57.2227356434 90.2227036953 -10.2059560816 -0.5221590808 1
-53.6671836376 90.2227036953 -9.3783580453 -0.4504588812 1
-50.1116316319 90.2227036953 -9.8988861442 -0.5983054603 1
-46.5560796261 90.2227036953 -10.9690451311 -0.5649913298 1
-43.0005276203 90.2227036953 -10.0464534946 -0.6298540064 1
-39.4449756145 90.2227036953 -10.7216298972 -0.0561693567 1
-35.8894236088 90.2227036953 0 -0 0
-32.333871603 90.2227036953 -11.3350924635 -0.6129155645 1
-28.7783195972 90.2227036953 -9.6164384493 -1.036383771 1
-25.2227675915 90.2227036953 -10.1343575499 -0.3658669078 1
-21.6672155857 90.2227036953 -10.7488461027 0.4857147251 1
-18.1116635799 90.2227036953 -11.1055521616 -0.5166432402 1
-14.5561115742 90.2227036953 -10.4291013307 0.2306658084 1
-11.0005595684 90.2227036953 -11.5766696699 -0.7756987306 1
-7.4450075626 90.2227036953 0 -0 0
-3.8894555569 90.2227036953 -10.1072193852 0.5292715367 1
-0.3339035511 90.2227036953 -11.0106129753 0.1954271478 1
3.2216484547 90.2227036953 -10.1650712738 -0.3847270158 1
6.7772004604 90.2227036953 -11.1156938907 1.0819796681 1
10.3327524662 90.2227036953 -10.8500407276 0.0215349757 1
13.888304472 90.2227036953 -10.6369605989 0.856022085 1
17.4438564777 90.2227036953 0 -0 0
20.9994084835 90.2227036953 0 -0 0