TITLE = "B00006"
VARIABLES = "x", "y", "Vx", "Vy", "isValid"
ZONE T="Frame 0", I=102, J=78, F=POINT
-125.6671117544 126.6671117544 0 -0 0
-123.8893357515 126.6671117544 0 -0 0
-122.1115597486 126.6671117544 0 -0 0
-120.3337837458 126.6671117544 0 -0 0
-118.5560077429 126.6671117544 0 -0 0
-116.77823174 126.6671117544 0 -0 0
-115.0004557371 126.6671117544 0 -0 0
-113.2226797342 126.6671117544 0 -0 0
-111.4449037313 126.6671117544 0 -0 0
-109.6671277285 126.6671117544 0 -0 0
-107.8893517256 126.6671117544 0 -0 0
-106.1115757227 126.6671117544 0 -0 0
-104.3337997198 126.6671117544 0 -0 0
-102.5560237169 126.6671117544 0 -0 0
-100.778247714 126.6671117544 0 -0 0
-99.0004717112 126.6671117544 0 -0 0
-97.2226957083 126.6671117544 0 -0 0
-95.4449197054 126.6671117544 0 -0 0
-93.6671437025 126.6671117544 0 -0 0
-91.8893676996 126.6671117544 0 -0 0
-90.1115916967 126.6671117544 0 -0 0
-88.3338156939 126.6671117544 0 -0 0
-86.556039691 126.6671117544 0 -0 0
-84.7782636881 126.6671117544 0 -0 0
-83.0004876852 126.6671117544 0 -0 0
-81.2227116823 126.6671117544 0 -0 0
-79.4449356794 126.6671117544 0 -0 0
-77.6671596766 126.6671117544 0 -0 0
-75.8893836737 126.6671117544 0 -0 0
-74.1116076708 126.6671117544 0 -0 0
-72.3338316679 126.6671117544 0 -0 0
-70.556055665 126.6671117544 0 -0 0
-68.7782796621 126.6671117544 0 -0 0
-67.0005036592 126.6671117544 0 -0 0
-65.2227276564 126.6671117544 0 -0 0
-63.4449516535 126.6671117544 0 -0 0
-61.6671756506 126.6671117544 0 -0 0
-59.8893996477 126.6671117544 0 -0 0
-58.1116236448 126.6671117544 0 -0 0
-56.3338476419 126.6671117544 0 -0 0
-54.5560716391 126.6671117544 0 -0 0
-52.7782956362 126.6671117544 0 -0 0
-51.0005196333 126.6671117544 0 -0 0
-49.2227436304 126.6671117544 0 -0 0
-47.4449676275 126.6671117544 0 -0 0
-45.6671916246 126.6671117544 0 -0 0
-43.8894156218 126.6671117544 0 -0 0
-42.1116396189 126.6671117544 0 -0 0
-40.333863616 126.6671117544 0 -0 0
-38.5560876131 126.6671117544 0 -0 0
-36.7783116102 126.6671117544 0 -0 0
-35.0005356073 126.6671117544 0 -0 0
-33.2227596045 126.6671117544 0 -0 0
-31.4449836016 126.6671117544 0 -0 0
-29.6672075987 126.6671117544 0 -0 0
-27.8894315958 126.6671117544 0 -0 0
-26.1116555929 126.6671117544 0 -0 0
-24.33387959 126.6671117544 0 -0 0
-22.5561035872 126.6671117544 0 -0 0
-20.7783275843 126.6671117544 0 -0 0
-19.0005515814 126.6671117544 0 -0 0
-17.2227755785 126.6671117544 0 -0 0
-15.4449995756 126.6671117544 0 -0 0
-13.6672235727 126.6671117544 0 -0 0
-11.8894475698 126.6671117544 0 -0 0
-10.111671567 126.6671117544 0 -0 0
-8.3338955641 126.6671117544 0 -0 0
-6.5561195612 126.6671117544 0 -0 0
-4.7783435583 126.6671117544 0 -0 0
-3.0005675554 126.6671117544 0 -0 0
-1.2227915525 126.6671117544 0 -0 0
0.5549844503 126.6671117544 0 -0 0
2.3327604532 126.6671117544 0 -0 0
4.1105364561 126.6671117544 0 -0 0
5.888312459 126.6671117544 0 -0 0
7.6660884619 126.6671117544 0 -0 0
9.4438644648 126.6671117544 0 -0 0
11.2216404676 126.6671117544 0 -0 0
12.9994164705 126.6671117544 0 -0 0
14.7771924734 126.6671117544 0 -0 0
16.5549684763 126.6671117544 0 -0 0
18.3327444792 126.6671117544 0 -0 0
20.1105204821 126.6671117544 0 -0 0
21.8882964849 126.6671117544 0 -0 0
23.6660724878 126.6671117544 0 -0 0
25.4438484907 126.6671117544 0 -0 0
27.2216244936 126.6671117544 0 -0 0
28.9994004965 126.6671117544 0 -0 0
30.7771764994 126.6671117544 0 -0 0
32.5549525023 126.6671117544 0 -0 0
34.3327285051 126.6671117544 0 -0 0
36.110504508 126.6671117544 0 -0 0
37.8882805109 126.6671117544 0 -0 0
39.6660565138 126.6671117544 0 -0 0
41.4438325167 126.6671117544 0 -0 0
43.2216085196 126.6671117544 0 -0 0
44.9993845224 126.6671117544 0 -0 0
46.7771605253 126.6671117544 0 -0 0
48.5549365282 126.6671117544 0 -0 0
50.3327125311 126.6671117544 0 -0 0
52.110488534 126.6671117544 0 -0 0
53.8882645369 126.6671117544 0 -0 0
-125.6671117544 124.8893357515 0 -0 0
-123.8893357515 124.8893357515 -6.8276476036 1.0094455597 1
-122.1115597486 124.8893357515 -7.8690412199 1.2067323148 1
-120.3337837458 124.8893357515 -9.3603213996 0.7119171412 1
-118.5560077429 124.8893357515 -11.8375231969 -1.7115610584 1
-116.77823174 124.8893357515 -10.566153023 -2.4483266881 1
-115.0004557371 124.8893357515 -9.5348259585 0.241862153 1
-113.2226797342 124.8893357515 -9.8103492479 0.6353936868 1
-111.4449037313 124.8893357515 -7.6964263471 1.9917467508 1
-109.6671277285 124.8893357515 -9.7568905596 0.8403981316 1
-107.8893517256 124.8893357515 -11.3414011376 -0.6072250023 1
-106.1115757227 124.8893357515 -11.3540991214 -1.4292384313 1
-104.3337997198 124.8893357515 -9.7874434274 0.7380018729 1
-102.5560237169 124.8893357515 -8.8433951332 -0.3962512688 1
-100.778247714 124.8893357515 -8.8963593243 -0.8270113837 1
-99.0004717112 124.8893357515 -9.8815215354 0.7729345738 1
-97.2226957083 124.8893357515 -11.3413304951 1.4947946425 1
-95.4449197054 124.8893357515 -11.0246403069 0.8194526396 1
-93.6671437025 124.8893357515 -10.7326749828 0.9671483815 1
-91.8893676996 124.8893357515 -9.3999694853 2.5719863299 1
-90.1115916967 124.8893357515 -10.350728814 -0.2060817425 1
-88.3338156939 124.8893357515 -10.4935149043 -1.1968070479 1
-86.556039691 124.8893357515 -10.0615008856 0.6683660591 1
-84.7782636881 124.8893357515 -9.8152412389 1.5141683396 1
-83.0004876852 124.8893357515 -10.0560260942 -0.8607078414 1
-81.2227116823 124.8893357515 -11.2931523313 -2.2333086733 1
-79.4449356794 124.8893357515 -9.6245242334 -0.4822408141 1
-77.6671596766 124.8893357515 -9.1059731902 0.6120993326 1
-75.8893836737 124.8893357515 -8.7262875804 -0.1083125655 1
-74.1116076708 124.8893357515 -10.8680259533 -1.9019601728 1
-72.3338316679 124.8893357515 -10.0026733696 -2.6795218283 1
-70.556055665 124.8893357515 -8.8462738138 1.6549057983 1
-68.7782796621 124.8893357515 0 -0 0
-67.0005036592 124.8893357515 0 -0 0
-65.2227276564 124.8893357515 0 -0 0
-63.4449516535 124.8893357515 0 -0 0
-61.6671756506 124.8893357515 0 -0 0
-59.8893996477 124.8893357515 -9.186311338 -1.9942545584 1
-58.1116236448 124.8893357515 -15.4881847061 1.6260306891 1
-56.3338476419 124.8893357515 -12.1326850927 -0.3471724135 1
-54.5560716391 124.8893357515 -11.12286866 -2.9348413716 1
-52.7782956362 124.8893357515 -8.455744585 -2.5936559073 1
-51.0005196333 124.8893357515 -8.8211957374 2.349639159 1
-49.2227436304 124.8893357515 -9.7742862675 2.747497544 1
-47.4449676275 124.8893357515 -11.371600793 4.5114929749 1
-45.6671916246 124.8893357515 -11.3586202394 0.0427563543 1
-43.8894156218 124.8893357515 -11.4700940554 0.1925360491 1
-42.1116396189 124.8893357515 -11.8680760647 2.5777790124 1
-40.333863616 124.8893357515 -11.2499544616 2.9085447125 1
-38.5560876131 124.8893357515 -10.5419579774 -0.7076079506 1
-36.7783116102 124.8893357515 -8.0475370783 -1.5309635866 1
-35.0005356073 124.8893357515 -7.6664916009 -2.2529472796 1
-33.2227596045 124.8893357515 -9.9166131818 2.9902603884 1
-31.4449836016 124.8893357515 -10.8320865972 -0.4570391133 1
-29.6672075987 124.8893357515 -9.5078228747 0.8989607383 1
-27.8894315958 124.8893357515 -10.0897755338 2.5105980244 1
-26.1116555929 124.8893357515 -12.4267167089 -1.6493427039 1
-24.33387959 124.8893357515 -11.2124786318 1.0235210717 1
-22.5561035872 124.8893357515 -8.8866989667 2.830732033 1
-20.7783275843 124.8893357515 -7.9054044308 2.3206757467 1
-19.0005515814 124.8893357515 -9.3908389462 3.6060861113 1
-17.2227755785 124.8893357515 -10.2109626892 1.0371903894 1
-15.4449995756 124.8893357515 -7.1814780699 4.9666777235 1
-13.6672235727 124.8893357515 -6.1651272088 2.4088198873 1
-11.8894475698 124.8893357515 -8.9884771038 2.9614382611 1
-10.111671567 124.8893357515 -9.4537284042 -0.0674282366 1
-8.3338955641 124.8893357515 -10.8563522853 0.96624769 1
-6.5561195612 124.8893357515 -8.9023815948 -1.7011236336 1
-4.7783435583 124.8893357515 -9.0911559324 1.7833867887 1
-3.0005675554 124.8893357515 -7.4562419528 4.4530186713 1
-1.2227915525 124.8893357515 -8.1295176635 4.2862318021 1
0.5549844503 124.8893357515 -8.8421765507 2.964352263 1
2.3327604532 124.8893357515 -9.3102535498 1.9113026393 1
4.1105364561 124.8893357515 -10.5330570263 3.0560638482 1
5.888312459 124.8893357515 -10.9874647076 1.9950846074 1
7.6660884619 124.8893357515 -10.3038222146 2.8696030515 1
9.4438644648 124.8893357515 -9.4618522881 -1.8300461394 1
11.2216404676 124.8893357515 -7.5926702209 -3.7407306571 1
12.9994164705 124.8893357515 0 -0 0
14.7771924734 124.8893357515 0 -0 0
16.5549684763 124.8893357515 0 -0 0
18.3327444792 124.8893357515 0 -0 0
20.1105204821 124.8893357515 0 -0 0
21.8882964849 124.8893357515 0 -0 0
23.6660724878 124.8893357515 0 -0 0
25.4438484907 124.8893357515 0 -0 0
27.2216244936 124.8893357515 0 -0 0
28.9994004965 124.8893357515 0 -0 0
30.7771764994 124.8893357515 0 -0 0
32.5549525023 124.8893357515 0 -0 0
34.3327285051 124.8893357515 0 -0 0
36.110504508 124.8893357515 -7.530098654 3.7508501908 1
37.8882805109 124.8893357515 -9.7097013903 0.2524408627 1
39.6660565138 124.8893357515 -10.8628337318 -1.9896098161 1
41.4438325167 124.8893357515 -12.2271517342 -0.933028069 1
43.2216085196 124.8893357515 -8.7209187527 2.9015511081 1
44.9993845224 124.8893357515 -7.0658186876 1.6857059148 1
46.7771605253 124.8893357515 -9.9049395138 -4.0784546404 1
48.5549365282 124.8893357515 -10.2586993376 -3.9047624699 1
50.3327125311 124.8893357515 -12.098158586 -3.4207909153 1
52.110488534 124.8893357515 -6.7572170621 -3.1635640253 1
53.8882645369 124.8893357515 0 -0 0
-125.6671117544 123.1115597486 0 -0 0
-123.8893357515 123.1115597486 -8.9740837008 2.1540125019 1
-122.1115597486 123.1115597486 -9.0216260823 1.13248708 1
-120.3337837458 123.1115597486 -10.819918432 -0.3087782317 1
-118.5560077429 123.1115597486 -10.6741476973 1.1618920077 1
-116.77823174 123.1115597486 -10.927789482 1.3612980368 1
-115.0004557371 123.1115597486 -11.2069155374 0.9491345519 1
-113.2226797342 123.1115597486 -9.6126033168 0.7549207442 1
-111.4449037313 123.1115597486 -8.124696315 -2.3331088213 1
-109.6671277285 123.1115597486 -10.0192037073 2.7772203628 1
-107.8893517256 123.1115597486 -10.4828478915 3.5206087239 1
-106.1115757227 123.1115597486 -10.6312677187 -0.6625910373 1
-104.3337997198 123.1115597486 -10.1097496918 -2.9794874119 1
-102.5560237169 123.1115597486 -9.9878737723 -1.3962483983 1
-100.778247714 123.1115597486 -9.6095656906 -1.6627471124 1
-99.0004717112 123.1115597486 -8.2046635898 -1.574179117 1
-97.2226957083 123.1115597486 -9.7542061457 -0.4642093239 1
-95.4449197054 123.1115597486 -11.0764918791 -0.4673705744 1
-93.6671437025 123.1115597486 -11.5456461759 0.9684905884 1
-91.8893676996 123.1115597486 -10.6276472922 2.3886867837 1
-90.1115916967 123.1115597486 -10.6507120583 0.1423975567 1
-88.3338156939 123.1115597486 -10.8899604399 -0.0494850495 1
-86.556039691 123.1115597486 -9.9204102145 0.4071125484 1
-84.7782636881 123.1115597486 -10.1214233598 -0.5881868569 1
-83.0004876852 123.1115597486 -10.3407858865 -3.4568538957 1
-81.2227116823 123.1115597486 -10.2061766619 -1.070198083 1
-79.4449356794 123.1115597486 -8.8872817671 2.2620954794 1
-77.6671596766 123.1115597486 -8.5693200144 2.4547198315 1
-75.8893836737 123.1115597486 -9.8202391936 0.535399272 1
-74.1116076708 123.1115597486 -11.0541335377 -1.7175126864 1
-72.3338316679 123.1115597486 -10.4113223917 0.1034558957 1
-70.556055665 123.1115597486 -10.7164801968 0.3093433714 1
-68.7782796621 123.1115597486 0 -0 0
-67.0005036592 123.1115597486 0 -0 0
-65.2227276564 123.1115597486 0 -0 0
-63.4449516535 123.1115597486 0 -0 0
-61.6671756506 123.1115597486 0 -0 0
-59.8893996477 123.1115597486 -6.8233030918 -1.4601974933 1
-58.1116236448 123.1115597486 -12.7743306379 3.7275911579 1
-56.3338476419 123.1115597486 -11.9493502252 1.0926623881 1
-54.5560716391 123.1115597486 -11.77924316 -0.0974866071 1
-52.7782956362 123.1115597486 -9.6020069464 -1.5350785104 1
-51.0005196333 123.1115597486 -9.8054219357 1.8400243881 1
-49.2227436304 123.1115597486 -11.833178685 4.2291703479 1
-47.4449676275 123.1115597486 -10.990308067 -0.2449174398 1
-45.6671916246 123.1115597486 -10.1045574704 -2.0564552523 1
-43.8894156218 123.1115597486 -9.8362043915 3.0927979321 1
-42.1116396189 123.1115597486 -8.6573758519 0.2883978794 1
-40.333863616 123.1115597486 -9.1816842563 0.9356418403 1
-38.5560876131 123.1115597486 -9.0711994349 -2.2700780784 1
-36.7783116102 123.1115597486 -9.6306171463 4.0114855799 1
-35.0005356073 123.1115597486 -9.2448562842 3.1461153355 1
-33.2227596045 123.1115597486 -9.6182547143 1.9531759627 1
-31.4449836016 123.1115597486 -8.8430949027 3.5558769765 1
-29.6672075987 123.1115597486 -10.5995492501 1.709088572 1
-27.8894315958 123.1115597486 -9.8594634244 3.2142323362 1
-26.1116555929 123.1115597486 -10.8727236775 1.6446979616 1
-24.33387959 123.1115597486 -12.3506524305 1.5254004922 1
-22.5561035872 123.1115597486 -6.8472155675 0.7587707587 1
-20.7783275843 123.1115597486 -7.7741507236 2.6475207898 1
-19.0005515814 123.1115597486 -8.3530480958 2.0132573826 1
-17.2227755785 123.1115597486 -11.0792469354 4.7626446126 1
-15.4449995756 123.1115597486 -9.283480054 2.2792615993 1
-13.6672235727 123.1115597486 -6.1416385879 1.2424244223 1
-11.8894475698 123.1115597486 -7.0156095528 0.5960458316 1
-10.111671567 123.1115597486 -9.1119071576 0.3760651833 1
-8.3338955641 123.1115597486 -10.9875530107 1.3215086662 1
-6.5561195612 123.1115597486 -10.7715989832 3.536662225 1
-4.7783435583 123.1115597486 -10.616026606 3.4572424293 1
-3.0005675554 123.1115597486 -8.9745605374 5.5661673754 1
-1.2227915525 123.1115597486 -7.2984973197 1.3001039981 1
0.5549844503 123.1115597486 -9.42471201 0.8960290759 1
2.3327604532 123.1115597486 -11.1816078729 3.8296165436 1
4.1105364561 123.1115597486 -10.7169923547 0.6136004851 1
5.888312459 123.1115597486 -10.9147206253 1.1134665952 1
7.6660884619 123.1115597486 -9.1473166952 1.4571245459 1
9.4438644648 123.1115597486 -9.2662962735 -0.6125055268 1
11.2216404676 123.1115597486 -8.3894642885 1.1613092073 1
12.9994164705 123.1115597486 0 -0 0
14.7771924734 123.1115597486 0 -0 0
16.5549684763 123.1115597486 0 -0 0
18.3327444792 123.1115597486 0 -0 0
20.1105204821 123.1115597486 0 -0 0
21.8882964849 123.1115597486 0 -0 0
23.6660724878 123.1115597486 0 -0 0
25.4438484907 123.1115597486 0 -0 0
27.2216244936 123.1115597486 0 -0 0
28.9994004965 123.1115597486 0 -0 0
30.7771764994 123.1115597486 0 -0 0
32.5549525023 123.1115597486 0 -0 0
34.3327285051 123.1115597486 0 -0 0
36.110504508 123.1115597486 -8.905277936 1.5584611676 1
37.8882805109 123.1115597486 -10.5186106414 -0.8368483475 1
39.6660565138 123.1115597486 -9.4584261283 -1.9049624777 1
41.4438325167 123.1115597486 -6.8846737367 -0.3976111364 1
43.2216085196 123.1115597486 -7.080794891 2.3865675096 1
44.9993845224 123.1115597486 -8.5034282515 -0.6836954749 1
46.7771605253 123.1115597486 -10.3522829483 -3.4408710371 1
48.5549365282 123.1115597486 -11.3385401176 -1.8496670851 1
50.3327125311 123.1115597486 -10.5359003856 -2.5004078483 1
52.110488534 123.1115597486 -6.5169973465 -5.2070563846 1
53.8882645369 123.1115597486 0 -0 0
-125.6671117544 121.3337837458 0 -0 0
-123.8893357515 121.3337837458 -9.5966027976 -0.1419913625 1
-122.1115597486 121.3337837458 -10.6352413576 1.5928110681 1
-120.3337837458 121.3337837458 -10.321058977 0.9349883975 1
-118.5560077429 121.3337837458 -9.6355091373 -1.6680452975 1
-116.77823174 121.3337837458 -10.7648349668 -0.942529481 1
-115.0004557371 121.3337837458 -11.9939962655 -0.8820065458 1
-113.2226797342 121.3337837458 -10.8771564924 -1.268597457 1
-111.4449037313 121.3337837458 -10.8133486824 -1.1828021785 1
-109.6671277285 121.3337837458 -11.0171345446 2.1594166508 1
-107.8893517256 121.3337837458 -10.3628439974 1.7623176723 1
-106.1115757227 121.3337837458 -10.3951276057 0.017854884 1
-104.3337997198 121.3337837458 -9.4598213171 -0.6229782728 1
-102.5560237169 121.3337837458 -10.3368299082 -1.6826682886 1
-100.778247714 121.3337837458 -10.7043120316 1.7745211588 1
-99.0004717112 121.3337837458 -9.2781465476 3.6972855387 1
-97.2226957083 121.3337837458 -9.882369245 0.171590557 1
-95.4449197054 121.3337837458 -10.81156496 0.0246718823 1
-93.6671437025 121.3337837458 -11.6256134507 2.6906656777 1
-91.8893676996 121.3337837458 -11.2373624415 0.9879702492 1
-90.1115916967 121.3337837458 -11.2608510624 -2.0350329236 1
-88.3338156939 121.3337837458 -9.5004937186 2.4251912795 1
-86.556039691 121.3337837458 -9.3849579607 1.2425127253 1
-84.7782636881 121.3337837458 -9.5615994542 -1.0261171824 1
-83.0004876852 121.3337837458 -10.9106233621 -0.407271494 1
-81.2227116823 121.3337837458 -8.7431358092 -1.5689868955 1
-79.4449356794 121.3337837458 -8.9715405719 -0.3864319656 1
-77.6671596766 121.3337837458 -9.1284374954 2.1117153236 1
-75.8893836737 121.3337837458 -10.176135952 2.0015307327 1
-74.1116076708 121.3337837458 -11.3812611507 0.231848583 1
-72.3338316679 121.3337837458 -10.9933280326 -1.6523979907 1
-70.556055665 121.3337837458 -11.3464344135 -0.4960514168 1
-68.7782796621 121.3337837458 0 -0 0
-67.0005036592 121.3337837458 0 -0 0
-65.2227276564 121.3337837458 0 -0 0
-63.4449516535 121.3337837458 0 -0 0
-61.6671756506 121.3337837458 0 -0 0
-59.8893996477 121.3337837458 -11.5146694532 0.0988464746 1
-58.1116236448 121.3337837458 -9.5874192766 1.9300405542 1
-56.3338476419 121.3337837458 -9.6867249273 0.8039642782 1
-54.5560716391 121.3337837458 -11.4911455111 1.5510260478 1
-52.7782956362 121.3337837458 -10.5738530521 -1.7155346973 1
-51.0005196333 121.3337837458 -11.240523692 -1.5275197662 1
-49.2227436304 121.3337837458 -12.9224678953 -0.9392799275 1
-47.4449676275 121.3337837458 -9.6131861171 -2.4683714886 1
-45.6671916246 121.3337837458 -10.3414746505 0.2436635359 1
-43.8894156218 121.3337837458 -12.1318550436 3.5831626301 1
-42.1116396189 121.3337837458 -10.6202121723 1.5155282071 1
-40.333863616 121.3337837458 -10.1311720205 -2.7115228667 1
-38.5560876131 121.3337837458 -9.7088183594 2.0386886714 1
-36.7783116102 121.3337837458 -11.0782402802 3.7872663835 1
-35.0005356073 121.3337837458 -10.4851437717 1.9800554222 1
-33.2227596045 121.3337837458 -10.6695206156 3.1634580616 1
-31.4449836016 121.3337837458 -9.7775711423 -2.2083188999 1
-29.6672075987 121.3337837458 -15.7460826995 -3.3746790437 1
-27.8894315958 121.3337837458 -11.7306941232 -0.1279864931 1
-26.1116555929 121.3337837458 -8.7009975765 1.4300684803 1
-24.33387959 121.3337837458 -11.9234950815 -1.317411403 1
-22.5561035872 121.3337837458 -9.9019725301 2.1101082075 1
-20.7783275843 121.3337837458 -9.137126519 4.1095373267 1
-19.0005515814 121.3337837458 -8.6550976323 -1.1049011959 1
-17.2227755785 121.3337837458 -10.2128876965 3.0186763216 1
-15.4449995756 121.3337837458 -10.4638274067 3.5656786191 1
-13.6672235727 121.3337837458 -10.3231429299 2.860861046 1
-11.8894475698 121.3337837458 -9.8112499394 -1.2464333824 1
-10.111671567 121.3337837458 -10.6665183107 -2.2324786243 1
-8.3338955641 121.3337837458 -10.9584659741 0.6998902609 1
-6.5561195612 121.3337837458 -9.84674778 -0.7835486047 1
-4.7783435583 121.3337837458 -10.7493289449 -0.1380177237 1
-3.0005675554 121.3337837458 -9.9979403241 2.8988490337 1
-1.2227915525 121.3337837458 -10.2948329604 -0.091676264 1
0.5549844503 121.3337837458 -13.0645828821 3.1778867859 1
2.3327604532 121.3337837458 -12.6760846243 4.7356415288 1
4.1105364561 121.3337837458 -10.3664114421 -0.0814331061 1
5.888312459 121.3337837458 -13.2465225608 0.9065548037 1
7.6660884619 121.3337837458 -13.6191615844 2.3688009287 1
9.4438644648 121.3337837458 -9.7648201767 3.356347323 1
11.2216404676 121.3337837458 -7.620626978 6.3665818696 1
12.9994164705 121.3337837458 0 -0 0
14.7771924734 121.3337837458 0 -0 0
16.5549684763 121.3337837458 0 -0 0
18.3327444792 121.3337837458 0 -0 0
20.1105204821 121.3337837458 0 -0 0
21.8882964849 121.3337837458 0 -0 0
23.6660724878 121.3337837458 0 -0 0
25.4438484907 121.3337837458 0 -0 0
27.2216244936 121.3337837458 0 -0 0
28.9994004965 121.3337837458 0 -0 0
30.7771764994 121.3337837458 0 -0 0
32.5549525023 121.3337837458 0 -0 0
34.3327285051 121.3337837458 0 -0 0
36.110504508 121.3337837458 -6.6587237998 -0.5417924154 1
37.8882805109 121.3337837458 -6.9729415016 1.5101417189 1
39.6660565138 121.3337837458 -9.432235433 2.1246958773 1
41.4438325167 121.3337837458 -6.8806294553 0.5243967075 1
43.2216085196 121.3337837458 -7.3117781038 1.2797589671 1
44.9993845224 121.3337837458 -8.6192995612 -2.000824308 1
46.7771605253 121.3337837458 -7.517135761 -1.7255659279 1
48.5549365282 121.3337837458 -8.5889232995 -1.302647127 1
50.3327125311 121.3337837458 -8.5274113697 -3.4358907431 1
52.110488534 121.3337837458 -5.5301926981 3.1756792088 1
53.8882645369 121.3337837458 0 -0 0
-125.6671117544 119.5560077429 0 -0 0
-123.8893357515 119.5560077429 -8.6990725692 0.5549319147 1
-122.1115597486 119.5560077429 -9.6667860904 3.3234809144 1
-120.3337837458 119.5560077429 -9.1839977972 1.9122209914 1
-118.5560077429 119.5560077429 -8.5119053478 0.7260632956 1
-116.77823174 119.5560077429 -10.1439936287 -2.6570045413 1
-115.0004557371 119.5560077429 -10.6032756404 -2.6842548737 1
-113.2226797342 119.5560077429 -9.7984989737 -1.9150466901 1
-111.4449037313 119.5560077429 -10.2950272272 -1.9658386253 1
-109.6671277285 119.5560077429 -10.8534912653 -0.280662529 1
-107.8893517256 119.5560077429 -10.9048660008 -0.832256587 1
-106.1115757227 119.5560077429 -10.5566516109 -1.1953412167 1
-104.3337997198 119.5560077429 -9.4152459192 -0.5282290614 1
-102.5560237169 119.5560077429 -8.5852498912 0.2393543453 1
-100.778247714 119.5560077429 -9.0636936726 -0.9883411221 1
-99.0004717112 119.5560077429 -10.1521704944 3.4072982038 1
-97.2226957083 119.5560077429 -11.363529891 2.4369532506 1
-95.4449197054 119.5560077429 -10.569473219 1.1197007931 1
-93.6671437025 119.5560077429 -10.2691191017 1.4350840956 1
-91.8893676996 119.5560077429 -11.1499247256 0.0470478843 1
-90.1115916967 119.5560077429 -11.7322305969 -1.8515037893 1
-88.3338156939 119.5560077429 -9.4121023293 -2.7646636639 1
-86.556039691 119.5560077429 -9.2678680684 -0.5660227823 1
-84.7782636881 119.5560077429 -9.1772161202 -0.1085421535 1
-83.0004876852 119.5560077429 -10.4095739906 0.399518483 1
-81.2227116823 119.5560077429 -7.9976988165 -0.8349233402 1
-79.4449356794 119.5560077429 -8.4643099844 1.4141032824 1
-77.6671596766 119.5560077429 -11.0875827467 3.0822192224 1
-75.8893836737 119.5560077429 -11.7178195333 3.4944180286 1
-74.1116076708 119.5560077429 -12.4174978667 1.9009181964 1
-72.3338316679 119.5560077429 -10.554938531 -1.0781100395 1
-70.556055665 119.5560077429 -10.2053112917 -0.0531761185 1
-68.7782796621 119.5560077429 0 -0 0
-67.0005036592 119.5560077429 0 -0 0
-65.2227276564 119.5560077429 0 -0 0
-63.4449516535 119.5560077429 0 -0 0
-61.6671756506 119.5560077429 0 -0 0
-59.8893996477 119.5560077429 -12.2104094691 1.6432321303 1
-58.1116236448 119.5560077429 -8.354284339 -1.5901266543 1
-56.3338476419 119.5560077429 -9.6717840451 -1.1531323415 1
-54.5560716391 119.5560077429 -9.3397821018 1.2255232116 1
-52.7782956362 119.5560077429 -8.5669711523 3.0304029714 1
-51.0005196333 119.5560077429 -9.8882678911 -2.018449604 1
-49.2227436304 119.5560077429 -11.3451805097 -4.9696800284 1
-47.4449676275 119.5560077429 -9.278729348 -3.980473536 1
-45.6671916246 119.5560077429 -10.276766149 1.613579954 1
-43.8894156218 119.5560077429 -12.9885539249 4.6372365696 1
-42.1116396189 119.5560077429 -11.0043482577 2.0019722482 1
-40.333863616 119.5560077429 -9.4809963972 -0.4428752983 1
-38.5560876131 119.5560077429 -9.9881916634 -1.0452612915 1
-36.7783116102 119.5560077429 -9.5926468193 -1.6314701593 1
-35.0005356073 119.5560077429 -8.7718696335 2.4166082195 1
-33.2227596045 119.5560077429 -10.6211658456 3.8323009574 1
-31.4449836016 119.5560077429 -10.2460013538 -2.3006132855 1
-29.6672075987 119.5560077429 -14.005134374 -5.0207368728 1
-27.8894315958 119.5560077429 -10.3122639896 -1.9504385671 1
-26.1116555929 119.5560077429 -8.3249323932 -2.1513810699 1
-24.33387959 119.5560077429 -11.3850228621 -4.8035819233 1
-22.5561035872 119.5560077429 -11.1655190506 -2.6106630817 1
-20.7783275843 119.5560077429 -9.3000810342 4.4527361014 1
-19.0005515814 119.5560077429 -9.3122138783 2.6257452488 1
-17.2227755785 119.5560077429 -10.49482179 1.4799420634 1
-15.4449995756 119.5560077429 -9.4422136817 2.3325436815 1
-13.6672235727 119.5560077429 -9.1906735105 2.1486789955 1
-11.8894475698 119.5560077429 -10.2244024189 0.4994245947 1
-10.111671567 119.5560077429 -10.9465273969 1.7513151078 1
-8.3338955641 119.5560077429 -9.964402812 -1.2862933955 1
-6.5561195612 119.5560077429 -7.2514141141 -2.3888810505 1
-4.7783435583 119.5560077429 -7.2434491757 -3.1627692976 1
-3.0005675554 119.5560077429 -9.4553708416 3.3039659323 1
-1.2227915525 119.5560077429 -10.5868159451 1.7813734783 1
0.5549844503 119.5560077429 -11.7959677645 2.5508818923 1
2.3327604532 119.5560077429 -10.6465971345 3.196200846 1
4.1105364561 119.5560077429 -11.4159289423 0.0269147807 1
5.888312459 119.5560077429 -13.5857830179 -0.8865983063 1
7.6660884619 119.5560077429 -14.2809402333 1.6954192542 1
9.4438644648 119.5560077429 -9.4024772929 4.3900585708 1
11.2216404676 119.5560077429 -8.8176106321 2.9676901196 1
12.9994164705 119.5560077429 0 -0 0
14.7771924734 119.5560077429 0 -0 0
16.5549684763 119.5560077429 0 -0 0
18.3327444792 119.5560077429 0 -0 0
20.1105204821 119.5560077429 0 -0 0
21.8882964849 119.5560077429 0 -0 0
23.6660724878 119.5560077429 0 -0 0
25.4438484907 119.5560077429 0 -0 0
27.2216244936 119.5560077429 0 -0 0
28.9994004965 119.5560077429 0 -0 0
30.7771764994 119.5560077429 0 -0 0
32.5549525023 119.5560077429 0 -0 0
34.3327285051 119.5560077429 0 -0 0
36.110504508 119.5560077429 -7.644203902 1.0680788089 1
37.8882805109 119.5560077429 -10.0986764848 2.6858796505 1
39.6660565138 119.5560077429 -10.7681551629 5.4260833595 1
41.4438325167 119.5560077429 -8.1177556924 5.1010750206 1
43.2216085196 119.5560077429 -7.8641315684 -1.9534232114 1
44.9993845224 119.5560077429 -8.9171105496 0.5660934247 1
46.7771605253 119.5560077429 -7.604290907 -2.4670116211 1
48.5549365282 119.5560077429 -8.1617482899 -3.3480821542 1
50.3327125311 119.5560077429 -6.9340175012 1.815069936 1
52.110488534 119.5560077429 -3.9749810841 2.8425646465 1
53.8882645369 119.5560077429 0 -0 0
-125.6671117544 117.77823174 0 -0 0
-123.8893357515 117.77823174 -9.2464987216 0.2285990294 1
-122.1115597486 117.77823174 -8.3499574878 -2.2615656608 1
-120.3337837458 117.77823174 -8.6646520262 -1.5231222725 1
-118.5560077429 117.77823174 -7.9982109744 0.4526062984 1
-116.77823174 117.77823174 -7.3854228777 -0.9472095446 1
-115.0004557371 117.77823174 -8.7425353482 -1.7870072152 1
-113.2226797342 117.77823174 -8.9607146135 -0.1806504537 1
-111.4449037313 117.77823174 -8.7910667244 -1.457212849 1
-109.6671277285 117.77823174 -9.4494545348 -2.4410328532 1
-107.8893517256 117.77823174 -10.5583293695 -0.1339911029 1
-106.1115757227 117.77823174 -10.4334334845 -0.595056837 1
-104.3337997198 117.77823174 -11.2305277826 -1.0939339526 1
-102.5560237169 117.77823174 -11.2798185653 1.5517677937 1
-100.778247714 117.77823174 -11.7566728912 2.3232365362 1
-99.0004717112 117.77823174 -10.92658856 2.3407558685 1
-97.2226957083 117.77823174 -9.9316070458 1.2558994732 1
-95.4449197054 117.77823174 -10.8266824484 -0.5050583316 1
-93.6671437025 117.77823174 -9.9158361146 -0.6174681603 1
-91.8893676996 117.77823174 -10.9961184101 -0.4765364348 1
-90.1115916967 117.77823174 -11.72230533 0.1459296802 1
-88.3338156939 117.77823174 -10.5267345253 -2.4772371185 1
-86.556039691 117.77823174 -10.8990026759 -2.1140641857 1
-84.7782636881 117.77823174 -10.2953097971 -1.6277967509 1
-83.0004876852 117.77823174 -10.7759964769 -1.8346732211 1
-81.2227116823 117.77823174 -8.9729357606 -0.4805277343 1
-79.4449356794 117.77823174 -9.0859637109 0.6853732335 1
-77.6671596766 117.77823174 -9.7457290495 2.2036388363 1
-75.8893836737 117.77823174 -9.9382297773 2.884208382 1
-74.1116076708 117.77823174 -11.6524575889 1.5886784837 1
-72.3338316679 117.77823174 -10.5118289644 2.7592065332 1
-70.556055665 117.77823174 -9.4461343387 3.8525223642 1
-68.7782796621 117.77823174 0 -0 0
-67.0005036592 117.77823174 0 -0 0
-65.2227276564 117.77823174 0 -0 0
-63.4449516535 117.77823174 0 -0 0
-61.6671756506 117.77823174 0 -0 0
-59.8893996477 117.77823174 -15.7284927247 -0.4538778629 1
-58.1116236448 117.77823174 -10.6192408384 -3.0239038643 1
-56.3338476419 117.77823174 -10.9894250362 -1.1564701982 1
-54.5560716391 117.77823174 -10.1260327809 3.2021701346 1
-52.7782956362 117.77823174 -10.0325904552 5.4423664486 1
-51.0005196333 117.77823174 -11.1283611119 3.1157037526 1
-49.2227436304 117.77823174 -11.3685808275 -0.8827306311 1
-47.4449676275 117.77823174 -10.2572158457 -2.2054755405 1
-45.6671916246 117.77823174 -10.2759890818 -0.1759703901 1
-43.8894156218 117.77823174 -11.1845395353 0.0446283797 1
-42.1116396189 117.77823174 -9.8057928087 -4.6911014522 1
-40.333863616 117.77823174 -9.0352247576 -0.0872081279 1
-38.5560876131 117.77823174 -9.6702299108 -1.4609568999 1
-36.7783116102 117.77823174 -9.8320364859 -2.1823224713 1
-35.0005356073 117.77823174 -9.1485882596 -1.8881142489 1
-33.2227596045 117.77823174 -9.6543176947 0.5307545297 1
-31.4449836016 117.77823174 -7.5047203471 -1.6054207488 1
-29.6672075987 117.77823174 -6.7659060858 -4.5674241497 1
-27.8894315958 117.77823174 -8.0402785646 -4.5988423878 1
-26.1116555929 117.77823174 -9.5523629514 1.5053027097 1
-24.33387959 117.77823174 -12.6928268894 1.623452239 1
-22.5561035872 117.77823174 -10.8831611023 -2.1052338771 1
-20.7783275843 117.77823174 -9.3186070217 2.5974706006 1
-19.0005515814 117.77823174 -10.0959390892 2.4849548082 1
-17.2227755785 117.77823174 -12.0092373782 -0.4953449921 1
-15.4449995756 117.77823174 -8.6275470694 -1.966174177 1
-13.6672235727 117.77823174 -6.29306072 -0.0368577082 1
-11.8894475698 117.77823174 -8.6281475304 1.2440138778 1
-10.111671567 117.77823174 -9.9761824437 3.8105077558 1
-8.3338955641 117.77823174 -8.9855101201 -2.5132117958 1