TITLE = "B00003"
VARIABLES = "x", "y", "Vx", "Vy", "isValid"
ZONE T="Frame 0", I=102, J=78, F=POINT
-125.6671117544 126.6671117544 0 -0 0
-123.8893357515 126.6671117544 0 -0 0
-122.1115597486 126.6671117544 0 -0 0
-120.3337837458 126.6671117544 0 -0 0
-118.5560077429 126.6671117544 0 -0 0
-116.77823174 126.6671117544 0 -0 0
-115.0004557371 126.6671117544 0 -0 0
-113.2226797342 126.6671117544 0 -0 0
-111.4449037313 126.6671117544 0 -0 0
-109.6671277285 126.6671117544 0 -0 0
-107.8893517256 126.6671117544 0 -0 0
-106.1115757227 126.6671117544 0 -0 0
-104.3337997198 126.6671117544 0 -0 0
-102.5560237169 126.6671117544 0 -0 0
-100.778247714 126.6671117544 0 -0 0
-99.0004717112 126.6671117544 0 -0 0
-97.2226957083 126.6671117544 0 -0 0
-95.4449197054 126.6671117544 0 -0 0
-93.6671437025 126.6671117544 0 -0 0
-91.8893676996 126.6671117544 0 -0 0
-90.1115916967 126.6671117544 0 -0 0
-88.3338156939 126.6671117544 0 -0 0
-86.556039691 126.6671117544 0 -0 0
-84.7782636881 126.6671117544 0 -0 0
-83.0004876852 126.6671117544 0 -0 0
-81.2227116823 126.6671117544 0 -0 0
-79.4449356794 126.6671117544 0 -0 0
-77.6671596766 126.6671117544 0 -0 0
-75.8893836737 126.6671117544 0 -0 0
-74.1116076708 126.6671117544 0 -0 0
-72.3338316679 126.6671117544 0 -0 0
-70.556055665 126.6671117544 0 -0 0
-68.7782796621 126.6671117544 0 -0 0
-67.0005036592 126.6671117544 0 -0 0
-65.2227276564 126.6671117544 0 -0 0
-63.4449516535 126.6671117544 0 -0 0
-61.6671756506 126.6671117544 0 -0 0
-59.8893996477 126.6671117544 0 -0 0
-58.1116236448 126.6671117544 0 -0 0
-56.3338476419 126.6671117544 0 -0 0
-54.5560716391 126.6671117544 0 -0 0
-52.7782956362 126.6671117544 0 -0 0
-51.0005196333 126.6671117544 0 -0 0
-49.2227436304 126.6671117544 0 -0 0
-47.4449676275 126.6671117544 0 -0 0
-45.6671916246 126.6671117544 0 -0 0
-43.8894156218 126.6671117544 0 -0 0
-42.1116396189 126.6671117544 0 -0 0
-40.333863616 126.6671117544 0 -0 0
-38.5560876131 126.6671117544 0 -0 0
-36.7783116102 126.6671117544 0 -0 0
-35.0005356073 126.6671117544 0 -0 0
-33.2227596045 126.6671117544 0 -0 0
-31.4449836016 126.6671117544 0 -0 0
-29.6672075987 126.6671117544 0 -0 0
-27.8894315958 126.6671117544 0 -0 0
-26.1116555929 126.6671117544 0 -0 0
-24.33387959 126.6671117544 0 -0 0
-22.5561035872 126.6671117544 0 -0 0
-20.7783275843 126.6671117544 0 -0 0
-19.0005515814 126.6671117544 0 -0 0
-17.2227755785 126.6671117544 0 -0 0
-15.4449995756 126.6671117544 0 -0 0
-13.6672235727 126.6671117544 0 -0 0
-11.8894475698 126.6671117544 0 -0 0
-10.111671567 126.6671117544 0 -0 0
-8.3338955641 126.6671117544 0 -0 0
-6.5561195612 126.6671117544 0 -0 0
-4.7783435583 126.6671117544 0 -0 0
-3.0005675554 126.6671117544 0 -0 0
-1.2227915525 126.6671117544 0 -0 0
0.5549844503 126.6671117544 0 -0 0
2.3327604532 126.6671117544 0 -0 0
4.1105364561 126.6671117544 0 -0 0
5.888312459 126.6671117544 0 -0 0
7.6660884619 126.6671117544 0 -0 0
9.4438644648 126.6671117544 0 -0 0
11.2216404676 126.6671117544 0 -0 0
12.9994164705 126.6671117544 0 -0 0
14.7771924734 126.6671117544 0 -0 0
16.5549684763 126.6671117544 0 -0 0
18.3327444792 126.6671117544 0 -0 0
20.1105204821 126.6671117544 0 -0 0
21.8882964849 126.6671117544 0 -0 0
23.6660724878 126.6671117544 0 -0 0
25.4438484907 126.6671117544 0 -0 0
27.2216244936 126.6671117544 0 -0 0
28.9994004965 126.6671117544 0 -0 0
30.7771764994 126.6671117544 0 -0 0
32.5549525023 126.6671117544 0 -0 0
34.3327285051 126.6671117544 0 -0 0
36.110504508 126.6671117544 0 -0 0
37.8882805109 126.6671117544 0 -0 0
39.6660565138 126.6671117544 0 -0 0
41.4438325167 126.6671117544 0 -0 0
43.2216085196 126.6671117544 0 -0 0
44.9993845224 126.6671117544 0 -0 0
46.7771605253 126.6671117544 0 -0 0
48.5549365282 126.6671117544 0 -0 0
50.3327125311 126.6671117544 0 -0 0
52.110488534 126.6671117544 0 -0 0
53.8882645369 126.6671117544 0 -0 0
-125.6671117544 124.8893357515 0 -0 0
-123.8893357515 124.8893357515 -8.4654226032 -3.233711997 1
-122.1115597486 124.8893357515 -9.2741022663 -0.3848601707 1
-120.3337837458 124.8893357515 -9.8429507473 2.3659575693 1
-118.5560077429 124.8893357515 -10.7445075964 -1.3490239079 1
-116.77823174 124.8893357515 -9.6851531324 1.1583952055 1
-115.0004557371 124.8893357515 -10.2300184952 2.9777566714 1
-113.2226797342 124.8893357515 -10.5196349572 2.2020670414 1
-111.4449037313 124.8893357515 -9.558561828 -0.0098899456 1
-109.6671277285 124.8893357515 -9.6642429616 0.1320307744 1
-107.8893517256 124.8893357515 -9.7010830091 0.273050803 1
-106.1115757227 124.8893357515 -8.6965824222 1.0632221392 1
-104.3337997198 124.8893357515 -10.6560985465 -0.3364347583 1
-102.5560237169 124.8893357515 -11.4611931043 0.4116336664 1
-100.778247714 124.8893357515 -9.9392187719 -0.6976826837 1
-99.0004717112 124.8893357515 -9.0207430515 1.0518310411 1
-97.2226957083 124.8893357515 -9.2161224599 0.9724465666 1
-95.4449197054 124.8893357515 -10.0624192377 2.1024081784 1
-93.6671437025 124.8893357515 -9.4464169086 3.6554828577 1
-91.8893676996 124.8893357515 -10.8134193248 1.5305044105 1
-90.1115916967 124.8893357515 -10.1073478479 2.6637332364 1
-88.3338156939 124.8893357515 -9.202046948 1.6602922866 1
-86.556039691 124.8893357515 -10.1017670929 1.32276257 1
-84.7782636881 124.8893357515 -10.5017094307 -0.6756952153 1
-83.0004876852 124.8893357515 -11.8537886253 -1.0089510624 1
-81.2227116823 124.8893357515 -10.4923669642 -0.5023209359 1
-79.4449356794 124.8893357515 -9.3757744397 -0.7936151565 1
-77.6671596766 124.8893357515 -9.9586101296 -1.1601082853 1
-75.8893836737 124.8893357515 -9.3932407901 1.5793006959 1
-74.1116076708 124.8893357515 -10.6781566574 1.6100831518 1
-72.3338316679 124.8893357515 -11.7555955935 1.1937870824 1
-70.556055665 124.8893357515 -10.9801355515 2.8004440744 1
-68.7782796621 124.8893357515 0 -0 0
-67.0005036592 124.8893357515 0 -0 0
-65.2227276564 124.8893357515 0 -0 0
-63.4449516535 124.8893357515 0 -0 0
-61.6671756506 124.8893357515 0 -0 0
-59.8893996477 124.8893357515 -14.1593645443 3.2723004456 1
-58.1116236448 124.8893357515 -13.7199330664 3.0030113541 1
-56.3338476419 124.8893357515 -10.4291242939 0.6685779865 1
-54.5560716391 124.8893357515 -10.9899548547 1.2176465763 1
-52.7782956362 124.8893357515 -9.2972023536 1.0151322785 1
-51.0005196333 124.8893357515 -8.0710256992 0.4022735393 1
-49.2227436304 124.8893357515 -7.348494527 0.5068597146 1
-47.4449676275 124.8893357515 -10.1100146011 2.7628446204 1
-45.6671916246 124.8893357515 -10.2213118109 3.1308035804 1
-43.8894156218 124.8893357515 -11.0599262201 1.6047849666 1
-42.1116396189 124.8893357515 -11.4867480174 2.5548378706 1
-40.333863616 124.8893357515 -9.8149939902 3.9369930964 1
-38.5560876131 124.8893357515 -9.7525283871 1.0290311842 1
-36.7783116102 124.8893357515 -8.3402088271 3.2357253073 1
-35.0005356073 124.8893357515 -10.923497952 1.8504618129 1
-33.2227596045 124.8893357515 -9.9578154018 2.3974464498 1
-31.4449836016 124.8893357515 -10.0588164717 2.3625667308 1
-29.6672075987 124.8893357515 -11.1161576254 -2.3068298228 1
-27.8894315958 124.8893357515 -9.9276334069 -1.4951831761 1
-26.1116555929 124.8893357515 -8.0772422365 1.2341062715 1
-24.33387959 124.8893357515 -4.9036469806 3.3724891272 1
-22.5561035872 124.8893357515 -5.9792138912 -1.4910682523 1
-20.7783275843 124.8893357515 -6.1479964101 -2.1555489756 1
-19.0005515814 124.8893357515 -9.1591316481 -0.7560686843 1
-17.2227755785 124.8893357515 -9.9529057502 -1.7446217339 1
-15.4449995756 124.8893357515 -9.9793436942 1.8897390256 1
-13.6672235727 124.8893357515 -10.7831313663 -2.1482551407 1
-11.8894475698 124.8893357515 -7.681944641 -0.3920657025 1
-10.111671567 124.8893357515 -9.3010170469 0.8894063444 1
-8.3338955641 124.8893357515 -10.296422416 0.6875454894 1
-6.5561195612 124.8893357515 -8.5369304424 5.1954180379 1
-4.7783435583 124.8893357515 -10.2241375097 1.6886905591 1
-3.0005675554 124.8893357515 -6.2880097835 -3.0176343452 1
-1.2227915525 124.8893357515 -6.4664349994 -4.077041791 1
0.5549844503 124.8893357515 -9.7174367407 1.3306038841 1
2.3327604532 124.8893357515 -11.6280152946 0.7168091322 1
4.1105364561 124.8893357515 -10.1237192401 1.456153212 1
5.888312459 124.8893357515 -8.4787916905 -0.7042171121 1
7.6660884619 124.8893357515 -8.9521138929 -1.902595955 1
9.4438644648 124.8893357515 -10.0719912922 0.2849717197 1
11.2216404676 124.8893357515 -6.2199634253 -0.7498168258 1
12.9994164705 124.8893357515 0 -0 0
14.7771924734 124.8893357515 0 -0 0
16.5549684763 124.8893357515 0 -0 0
18.3327444792 124.8893357515 0 -0 0
20.1105204821 124.8893357515 0 -0 0
21.8882964849 124.8893357515 0 -0 0
23.6660724878 124.8893357515 0 -0 0
25.4438484907 124.8893357515 0 -0 0
27.2216244936 124.8893357515 0 -0 0
28.9994004965 124.8893357515 0 -0 0
30.7771764994 124.8893357515 0 -0 0
32.5549525023 124.8893357515 0 -0 0
34.3327285051 124.8893357515 0 -0 0
36.110504508 124.8893357515 -10.3659699266 1.4217150084 1
37.8882805109 124.8893357515 -7.3273371076 0.186955294 1
39.6660565138 124.8893357515 -7.1255645557 -1.8959555629 1
41.4438325167 124.8893357515 -10.5713982263 -0.8120351803 1
43.2216085196 124.8893357515 -10.5317148194 3.1075092262 1
44.9993845224 124.8893357515 -10.3912775911 5.8541590606 1
46.7771605253 124.8893357515 -9.7288984812 2.9173043787 1
48.5549365282 124.8893357515 -9.4948599817 0.7491810436 1
50.3327125311 124.8893357515 -9.0189240079 -0.6203291803 1
52.110488534 124.8893357515 -8.6189110276 0.3269686674 1
53.8882645369 124.8893357515 0 -0 0
-125.6671117544 123.1115597486 0 -0 0
-123.8893357515 123.1115597486 -9.9096019168 -1.0860573173 1
-122.1115597486 123.1115597486 -9.3474644703 1.4320817907 1
-120.3337837458 123.1115597486 -9.9925361753 -0.587303826 1
-118.5560077429 123.1115597486 -10.6518070165 -1.5835569047 1
-116.77823174 123.1115597486 -9.617301041 -0.0884267105 1
-115.0004557371 123.1115597486 -10.1617248884 1.3008457441 1
-113.2226797342 123.1115597486 -9.7559192256 1.3041836007 1
-111.4449037313 123.1115597486 -9.2855286856 2.8304847843 1
-109.6671277285 123.1115597486 -10.250098617 -0.4120222 1
-107.8893517256 123.1115597486 -9.8336612627 -1.6970793523 1
-106.1115757227 123.1115597486 -10.1076833996 0.1601288164 1
-104.3337997198 123.1115597486 -11.1358668742 0.6913072009 1
-102.5560237169 123.1115597486 -10.7808708073 -1.1625631111 1
-100.778247714 123.1115597486 -8.741069517 -4.4327796039 1
-99.0004717112 123.1115597486 -8.5471029579 -0.4104327445 1
-97.2226957083 123.1115597486 -8.7177928235 -1.638816976 1
-95.4449197054 123.1115597486 -10.3483093094 0.00286102 1
-93.6671437025 123.1115597486 -9.8615473773 0.7263635261 1
-91.8893676996 123.1115597486 -9.5836928864 -2.5533190575 1
-90.1115916967 123.1115597486 -9.8531939053 -2.1200334743 1
-88.3338156939 123.1115597486 -10.0833647297 0.5888226391 1
-86.556039691 123.1115597486 -11.2129201472 -0.0303056192 1
-84.7782636881 123.1115597486 -10.8047303011 -2.1516459792 1
-83.0004876852 123.1115597486 -11.4991987525 -0.4608008248 1
-81.2227116823 123.1115597486 -10.6006088872 1.6545349254 1
-79.4449356794 123.1115597486 -9.9675110807 -0.7773497281 1
-77.6671596766 123.1115597486 -9.1537804811 1.9774416508 1
-75.8893836737 123.1115597486 -8.4038576916 3.9361453868 1
-74.1116076708 123.1115597486 -10.5125000678 0.5510465789 1
-72.3338316679 123.1115597486 -12.1243316207 -1.7141924904 1
-70.556055665 123.1115597486 -11.7758523215 0.7474326425 1
-68.7782796621 123.1115597486 0 -0 0
-67.0005036592 123.1115597486 0 -0 0
-65.2227276564 123.1115597486 0 -0 0
-63.4449516535 123.1115597486 0 -0 0
-61.6671756506 123.1115597486 0 -0 0
-59.8893996477 123.1115597486 -13.7103610118 6.4902061902 1
-58.1116236448 123.1115597486 -11.0176290419 -2.6218775736 1
-56.3338476419 123.1115597486 -9.477729183 0.4670880045 1
-54.5560716391 123.1115597486 -10.3201053037 4.4571512557 1
-52.7782956362 123.1115597486 -9.6636425006 3.8187729246 1
-51.0005196333 123.1115597486 -11.1232395329 1.5062387225 1
-49.2227436304 123.1115597486 -11.7075587146 1.2311392878 1
-47.4449676275 123.1115597486 -11.3087113351 2.6844491405 1
-45.6671916246 123.1115597486 -11.2843750045 2.5843840832 1
-43.8894156218 123.1115597486 -10.1118336447 4.0445815766 1
-42.1116396189 123.1115597486 -10.89253889 3.7440155319 1
-40.333863616 123.1115597486 -9.4916810706 3.3878715248 1
-38.5560876131 123.1115597486 -9.5041847876 -0.2806448684 1
-36.7783116102 123.1115597486 -8.6178160693 3.105442934 1
-35.0005356073 123.1115597486 -9.9770831352 3.7272202849 1
-33.2227596045 123.1115597486 -10.1321256939 4.774759796 1
-31.4449836016 123.1115597486 -8.6315030477 4.3693956487 1
-29.6672075987 123.1115597486 -10.0902523704 4.4214768089 1
-27.8894315958 123.1115597486 -11.1566180995 -0.1194387543 1
-26.1116555929 123.1115597486 -9.1471754102 -0.873229219 1
-24.33387959 123.1115597486 -7.1291849823 0.8654938687 1
-22.5561035872 123.1115597486 -6.5058711577 0.6610192424 1
-20.7783275843 123.1115597486 -4.3409443943 3.2113006737 1
-19.0005515814 123.1115597486 -8.3812167803 1.7641896977 1
-17.2227755785 123.1115597486 -9.3624406737 -0.1007008395 1
-15.4449995756 123.1115597486 -7.7422379882 1.0998855806 1
-13.6672235727 123.1115597486 -10.0367936821 0.9613027172 1
-11.8894475698 123.1115597486 -9.9838824728 5.3738079325 1
-10.111671567 123.1115597486 -12.3594120967 6.6913252992 1
-8.3338955641 123.1115597486 -11.4643013729 2.8818418593 1
-6.5561195612 123.1115597486 -10.256279833 2.7132359465 1
-4.7783435583 123.1115597486 -10.6868103599 3.9065285317 1
-3.0005675554 123.1115597486 -8.5122408995 2.4746056865 1
-1.2227915525 123.1115597486 -8.5220072209 -0.6963934587 1
0.5549844503 123.1115597486 -10.6380670563 -1.0542858669 1
2.3327604532 123.1115597486 -10.4850907899 1.9395949481 1
4.1105364561 123.1115597486 -10.692020242 1.0830020305 1
5.888312459 123.1115597486 -8.355114388 2.4061884554 1
7.6660884619 123.1115597486 -9.1929693907 2.2351983593 1
9.4438644648 123.1115597486 -10.8525905738 3.8854417547 1
11.2216404676 123.1115597486 -5.8662919046 -0.6688075746 1
12.9994164705 123.1115597486 0 -0 0
14.7771924734 123.1115597486 0 -0 0
16.5549684763 123.1115597486 0 -0 0
18.3327444792 123.1115597486 0 -0 0
20.1105204821 123.1115597486 0 -0 0
21.8882964849 123.1115597486 0 -0 0
23.6660724878 123.1115597486 0 -0 0
25.4438484907 123.1115597486 0 -0 0
27.2216244936 123.1115597486 0 -0 0
28.9994004965 123.1115597486 0 -0 0
30.7771764994 123.1115597486 0 -0 0
32.5549525023 123.1115597486 0 -0 0
34.3327285051 123.1115597486 0 -0 0
36.110504508 123.1115597486 -8.675089451 2.5441531972 1
37.8882805109 123.1115597486 -6.6996964318 2.2154008074 1
39.6660565138 123.1115597486 -7.3013583396 -1.0007741967 1
41.4438325167 123.1115597486 -10.7984431214 1.8527047113 1
43.2216085196 123.1115597486 -11.5671568077 4.8292781214 1
44.9993845224 123.1115597486 -8.6994611028 2.492531213 1
46.7771605253 123.1115597486 -8.3999723558 3.0168042961 1
48.5549365282 123.1115597486 -8.6608373329 2.5444710883 1
50.3327125311 123.1115597486 -8.4805930734 -1.5794596415 1
52.110488534 123.1115597486 -11.1559116748 0.1358984496 1
53.8882645369 123.1115597486 0 -0 0
-125.6671117544 121.3337837458 0 -0 0
-123.8893357515 121.3337837458 -9.405197028 1.1108528239 1
-122.1115597486 121.3337837458 -10.1488856196 1.1003800779 1
-120.3337837458 121.3337837458 -11.2759332295 0.7345050707 1
-118.5560077429 121.3337837458 -9.7258785157 1.3042012613 1
-116.77823174 121.3337837458 -10.1015728261 0.2931839067 1
-115.0004557371 121.3337837458 -10.4241616604 -0.7642985319 1
-113.2226797342 121.3337837458 -8.946250568 -1.801135709 1
-111.4449037313 121.3337837458 -8.9532441724 2.1742868905 1
-109.6671277285 121.3337837458 -9.0842682917 -2.4441234612 1
-107.8893517256 121.3337837458 -7.3415009226 -3.0371316666 1
-106.1115757227 121.3337837458 -8.4279644341 -0.3258383879 1
-104.3337997198 121.3337837458 -10.1396137956 0.2328022563 1
-102.5560237169 121.3337837458 -10.2325969453 0.1550248981 1
-100.778247714 121.3337837458 -8.7712691725 -4.1612122928 1
-99.0004717112 121.3337837458 -9.4804312574 -0.6119050658 1
-97.2226957083 121.3337837458 -10.6656176192 -1.0656063225 1
-95.4449197054 121.3337837458 -11.4576433202 -2.272585886 1
-93.6671437025 121.3337837458 -10.0183736583 -2.5676241575 1
-91.8893676996 121.3337837458 -9.6530637908 -2.7889646732 1
-90.1115916967 121.3337837458 -9.3272783848 -0.8645401953 1
-88.3338156939 121.3337837458 -11.2230396809 1.7450809099 1
-86.556039691 121.3337837458 -11.9056755188 0.9056894335 1
-84.7782636881 121.3337837458 -11.3298157727 1.4097940918 1
-83.0004876852 121.3337837458 -10.7045592802 1.8830103305 1
-81.2227116823 121.3337837458 -10.0914532924 1.2561643825 1
-79.4449356794 121.3337837458 -9.4702587419 0.1831406007 1
-77.6671596766 121.3337837458 -9.7689527611 2.1220997666 1
-75.8893836737 121.3337837458 -9.1045780015 0.8285125362 1
-74.1116076708 121.3337837458 -10.7665833679 1.6994282144 1
-72.3338316679 121.3337837458 -11.4471882348 -0.4056290566 1
-70.556055665 121.3337837458 -10.6912431748 1.4549876113 1
-68.7782796621 121.3337837458 0 -0 0
-67.0005036592 121.3337837458 0 -0 0
-65.2227276564 121.3337837458 0 -0 0
-63.4449516535 121.3337837458 0 -0 0
-61.6671756506 121.3337837458 0 -0 0
-59.8893996477 121.3337837458 -8.9350184154 2.4730515522 1
-58.1116236448 121.3337837458 -8.4658287974 -1.7597745434 1
-56.3338476419 121.3337837458 -8.1961864935 -0.6519240245 1
-54.5560716391 121.3337837458 -9.8988289402 0.579462512 1
-52.7782956362 121.3337837458 -11.0520672455 2.362972925 1
-51.0005196333 121.3337837458 -12.098017301 3.2813956635 1
-49.2227436304 121.3337837458 -12.701657198 4.3226303343 1
-47.4449676275 121.3337837458 -12.0530357089 4.7303610043 1
-45.6671916246 121.3337837458 -11.1058968068 5.8119501854 1
-43.8894156218 121.3337837458 -8.6776149193 5.2732836992 1
-42.1116396189 121.3337837458 -7.3439380878 3.0455734416 1
-40.333863616 121.3337837458 -6.8528139832 3.9438983977 1
-38.5560876131 121.3337837458 -8.7089271936 0.5989245122 1
-36.7783116102 121.3337837458 -9.1629816627 5.2231098857 1
-35.0005356073 121.3337837458 -9.643226827 6.0122569061 1
-33.2227596045 121.3337837458 -10.2445355226 4.3547726576 1
-31.4449836016 121.3337837458 -7.6129799307 -1.4299978379 1
-29.6672075987 121.3337837458 -12.4730228473 3.6620879286 1
-27.8894315958 121.3337837458 -10.9220144602 3.1803416117 1
-26.1116555929 121.3337837458 -7.8078295206 1.9901926165 1
-24.33387959 121.3337837458 -9.9267503761 -4.2137702896 1
-22.5561035872 121.3337837458 -13.307186781 0.4347867356 1
-20.7783275843 121.3337837458 -9.8203981391 3.8205919682 1
-19.0005515814 121.3337837458 -9.7218695556 2.4743231166 1
-17.2227755785 121.3337837458 -8.5653640362 0.4986298669 1
-15.4449995756 121.3337837458 -6.3121871685 -2.2967456104 1
-13.6672235727 121.3337837458 -8.7507828565 -1.4132202515 1
-11.8894475698 121.3337837458 -10.1995362698 -0.6072426629 1
-10.111671567 121.3337837458 -12.0021201495 4.2328614169 1
-8.3338955641 121.3337837458 -10.4151547456 2.8396153235 1
-6.5561195612 121.3337837458 -8.8435717394 5.1562467888 1
-4.7783435583 121.3337837458 -7.782433553 -4.8981015468 1
-3.0005675554 121.3337837458 -8.9274773319 -7.1963836308 1
-1.2227915525 121.3337837458 -10.0418622792 2.5080372349 1
0.5549844503 121.3337837458 -11.01471504 -0.243063075 1
2.3327604532 121.3337837458 -9.461763985 1.5082873541 1
4.1105364561 121.3337837458 -10.1767717342 0.6440827104 1
5.888312459 121.3337837458 -10.2344336495 3.3915449332 1
7.6660884619 121.3337837458 -7.8122623355 -2.644465503 1
9.4438644648 121.3337837458 -6.7906309499 0.2827818031 1
11.2216404676 121.3337837458 -6.2686890683 -0.6375659427 1
12.9994164705 121.3337837458 0 -0 0
14.7771924734 121.3337837458 0 -0 0
16.5549684763 121.3337837458 0 -0 0
18.3327444792 121.3337837458 0 -0 0
20.1105204821 121.3337837458 0 -0 0
21.8882964849 121.3337837458 0 -0 0
23.6660724878 121.3337837458 0 -0 0
25.4438484907 121.3337837458 0 -0 0
27.2216244936 121.3337837458 0 -0 0
28.9994004965 121.3337837458 0 -0 0
30.7771764994 121.3337837458 0 -0 0
32.5549525023 121.3337837458 0 -0 0
34.3327285051 121.3337837458 0 -0 0
36.110504508 121.3337837458 -7.0247754132 0.2482906177 1
37.8882805109 121.3337837458 -6.7391855719 1.5064683105 1
39.6660565138 121.3337837458 -8.0621070875 -0.5180565459 1
41.4438325167 121.3337837458 -8.9560875318 -2.2916063708 1
43.2216085196 121.3337837458 -9.4940829145 -0.6821943224 1
44.9993845224 121.3337837458 -8.1953034627 5.4830565107 1
46.7771605253 121.3337837458 -9.6991933231 4.8078911139 1
48.5549365282 121.3337837458 -7.8877967954 1.6686987404 1
50.3327125311 121.3337837458 -7.3730074638 6.6173449736 1
52.110488534 121.3337837458 -10.5534903604 -2.852048398 1
53.8882645369 121.3337837458 0 -0 0
-125.6671117544 119.5560077429 0 -0 0
-123.8893357515 119.5560077429 -10.2504165081 -0.5446534354 1
-122.1115597486 119.5560077429 -10.327981939 0.1378764387 1
-120.3337837458 119.5560077429 -9.5831807285 1.4952184973 1
-118.5560077429 119.5560077429 -9.4397058741 2.8794576759 1
-116.77823174 119.5560077429 -9.9858074801 1.6242116456 1
-115.0004557371 119.5560077429 -10.1507399844 -1.715640661 1
-113.2226797342 119.5560077429 -8.7711102269 0.4480145379 1
-111.4449037313 119.5560077429 -9.4213564928 1.5296743615 1
-109.6671277285 119.5560077429 -9.0128487556 -0.8421641933 1
-107.8893517256 119.5560077429 -7.9466772933 -1.457212849 1
-106.1115757227 119.5560077429 -8.7646641016 1.6358146711 1
-104.3337997198 119.5560077429 -9.2165286541 -0.476942629 1
-102.5560237169 119.5560077429 -10.6738121456 1.0901192592 1
-100.778247714 119.5560077429 -10.3744470229 0.6066245413 1
-99.0004717112 119.5560077429 -10.8072910906 0.4425044254 1
-97.2226957083 119.5560077429 -11.7353565262 0.9331340327 1
-95.4449197054 119.5560077429 -10.6929209335 -0.5849019821 1
-93.6671437025 119.5560077429 -9.6320829776 -1.4709881305 1
-91.8893676996 119.5560077429 -11.5846408187 0.3057052843 1
-90.1115916967 119.5560077429 -11.0215850201 0.2827641425 1
-88.3338156939 119.5560077429 -11.4370687011 1.2649417092 1
-86.556039691 119.5560077429 -11.8502918231 0.4792561698 1
-84.7782636881 119.5560077429 -11.2806486143 -0.015823913 1
-83.0004876852 119.5560077429 -10.1358167629 1.8873018605 1
-81.2227116823 119.5560077429 -10.5649874222 -0.5818820166 1
-79.4449356794 119.5560077429 -9.3906270188 -1.9008475539 1
-77.6671596766 119.5560077429 -9.475698212 -0.4811458559 1
-75.8893836737 119.5560077429 -9.3587672653 0.636859518 1
-74.1116076708 119.5560077429 -9.7775888029 2.9234855947 1
-72.3338316679 119.5560077429 -10.200542925 2.3856138363 1
-70.556055665 119.5560077429 -10.1319314271 2.1389126742 1
-68.7782796621 119.5560077429 0 -0 0
-67.0005036592 119.5560077429 0 -0 0
-65.2227276564 119.5560077429 0 -0 0
-63.4449516535 119.5560077429 0 -0 0
-61.6671756506 119.5560077429 0 -0 0
-59.8893996477 119.5560077429 -6.144446626 0.1687471976 1
-58.1116236448 119.5560077429 -7.5940300884 0.8362302259 1
-56.3338476419 119.5560077429 -10.0871087805 -0.2792496797 1
-54.5560716391 119.5560077429 -10.8203246262 -0.1136813931 1
-52.7782956362 119.5560077429 -10.9773981558 -1.462934889 1
-51.0005196333 119.5560077429 -10.49768281 2.538254551 1
-49.2227436304 119.5560077429 -9.8145348142 3.0397277773 1
-47.4449676275 119.5560077429 -9.8233298016 3.8677634768 1
-45.6671916246 119.5560077429 -9.5374927117 3.8838522991 1
-43.8894156218 119.5560077429 -8.227216198 0.9111995461 1
-42.1116396189 119.5560077429 -8.0730036884 0.0158062524 1
-40.333863616 119.5560077429 -8.2136175228 3.1985850293 1
-38.5560876131 119.5560077429 -10.0003951499 2.0839175121 1
-36.7783116102 119.5560077429 -9.8547833609 -0.3697780036 1
-35.0005356073 119.5560077429 -11.1940939293 3.4968198725 1
-33.2227596045 119.5560077429 -11.8946199724 0.917292459 1
-31.4449836016 119.5560077429 -11.5108370993 1.6877015645 1
-29.6672075987 119.5560077429 -11.9076535079 3.6684457508 1
-27.8894315958 119.5560077429 -8.817522329 0.6825475348 1
-26.1116555929 119.5560077429 -9.1879361148 -2.1212697176 1
-24.33387959 119.5560077429 -11.1825085643 -6.1529060617 1
-22.5561035872 119.5560077429 -16.8507189861 -1.4062089865 1
-20.7783275843 119.5560077429 -11.1593025133 0.0599931167 1
-19.0005515814 119.5560077429 -8.7135189541 1.3400346537 1
-17.2227755785 119.5560077429 -8.2612128862 0.4905413042 1
-15.4449995756 119.5560077429 -10.9286548523 4.2878212577 1
-13.6672235727 119.5560077429 -9.7204920274 -0.6323030787 1
-11.8894475698 119.5560077429 -9.2556292607 -0.154336134 1
-10.111671567 119.5560077429 -10.6846557646 1.0028228283 1
-8.3338955641 119.5560077429 -11.2851873929 1.3428603524 1
-6.5561195612 119.5560077429 -10.0601939999 2.5870861577 1
-4.7783435583 119.5560077429 -7.4700525554 -3.9894098083 1
-3.0005675554 119.5560077429 -7.8714960457 -6.8138899828 1
-1.2227915525 119.5560077429 -9.2899261793 4.9886122101 1
0.5549844503 119.5560077429 -10.476454748 4.1152063849 1
2.3327604532 119.5560077429 -12.2945799708 -0.6393320044 1
4.1105364561 119.5560077429 -11.459126812 -2.2842948752 1
5.888312459 119.5560077429 -12.1688716974 0.3065000121 1
7.6660884619 119.5560077429 -7.9199037976 3.0458736721 1
9.4438644648 119.5560077429 -8.1104441969 1.4856464428 1
11.2216404676 119.5560077429 -9.9178317644 0.1615769871 1
12.9994164705 119.5560077429 0 -0 0
14.7771924734 119.5560077429 0 -0 0
16.5549684763 119.5560077429 0 -0 0
18.3327444792 119.5560077429 0 -0 0
20.1105204821 119.5560077429 0 -0 0
21.8882964849 119.5560077429 0 -0 0
23.6660724878 119.5560077429 0 -0 0
25.4438484907 119.5560077429 0 -0 0
27.2216244936 119.5560077429 0 -0 0
28.9994004965 119.5560077429 0 -0 0
30.7771764994 119.5560077429 0 -0 0
32.5549525023 119.5560077429 0 -0 0
34.3327285051 119.5560077429 0 -0 0
36.110504508 119.5560077429 -6.6000905506 0.5356465206 1
37.8882805109 119.5560077429 -7.9297937432 3.3444617276 1
39.6660565138 119.5560077429 -9.4246943494 2.0270503246 1
41.4438325167 119.5560077429 -8.2922072694 -3.5507024157 1
43.2216085196 119.5560077429 -10.3677006671 -3.6100067683 1
44.9993845224 119.5560077429 -10.1752882424 2.1095607283 1
46.7771605253 119.5560077429 -9.1800064977 2.3378418667 1
48.5549365282 119.5560077429 -7.7849943425 -0.1739747403 1
50.3327125311 119.5560077429 -8.8142197936 -2.973394499 1
52.110488534 119.5560077429 -9.6520218144 -2.5848432593 1
53.8882645369 119.5560077429 0 -0 0
-125.6671117544 117.77823174 0 -0 0
-123.8893357515 117.77823174 -11.3195726147 -1.0072556432 1
-122.1115597486 117.77823174 -10.8532793379 2.639944385 1
-120.3337837458 117.77823174 -9.2003691893 2.3696486383 1
-118.5560077429 117.77823174 -10.4642512615 0.9243743665 1
-116.77823174 117.77823174 -10.055761185 2.4207761252 1
-115.0004557371 117.77823174 -9.5985631261 0.520034535 1
-113.2226797342 117.77823174 -8.8774977851 -0.5444591686 1
-111.4449037313 117.77823174 -9.1687920057 -0.7492870073 1
-109.6671277285 117.77823174 -10.9798176604 2.2153301649 1
-107.8893517256 117.77823174 -10.7999619345 2.2536183831 1
-106.1115757227 117.77823174 -9.3741320023 -1.2104233838 1
-104.3337997198 117.77823174 -9.8832699365 -2.8699209426 1
-102.5560237169 117.77823174 -10.7432183713 -0.8562573659 1
-100.778247714 117.77823174 -11.0201545101 -0.4085253978 1
-99.0004717112 117.77823174 -10.7197297504 -0.612452545 1
-97.2226957083 117.77823174 -10.935312905 1.4270131936 1
-95.4449197054 117.77823174 -8.857523627 -0.4105387082 1
-93.6671437025 117.77823174 -9.7892624709 -2.8034817006 1
-91.8893676996 117.77823174 -11.8383532459 0.0179431871 1
-90.1115916967 117.77823174 -12.4322091609 0.3890987188 1
-88.3338156939 117.77823174 -12.2743938853 1.8823568876 1
-86.556039691 117.77823174 -10.7315447033 2.1665338795 1
-84.7782636881 117.77823174 -10.8117592268 0.1791316406 1
-83.0004876852 117.77823174 -10.7521546436 -0.1902754901 1
-81.2227116823 117.77823174 -10.5470089139 -2.1776953896 1
-79.4449356794 117.77823174 -10.4536725518 -0.3277987164 1
-77.6671596766 117.77823174 -10.6723463144 1.5587084163 1
-75.8893836737 117.77823174 -9.8212105275 0.6251328682 1
-74.1116076708 117.77823174 -9.6158528703 -0.3976111364 1
-72.3338316679 117.77823174 -10.387409916 3.2368909081 1
-70.556055665 117.77823174 -9.380560467 1.0724763026 1
-68.7782796621 117.77823174 0 -0 0
-67.0005036592 117.77823174 0 -0 0
-65.2227276564 117.77823174 0 -0 0
-63.4449516535 117.77823174 0 -0 0
-61.6671756506 117.77823174 0 -0 0
-59.8893996477 117.77823174 -9.8398777999 1.4568596367 1
-58.1116236448 117.77823174 -10.8533853016 3.2467808537 1
-56.3338476419 117.77823174 -12.5278943851 -0.752024403 1
-54.5560716391 117.77823174 -10.8975898265 -0.7105749343 1
-52.7782956362 117.77823174 -10.9784224716 -2.4692721801 1
-51.0005196333 117.77823174 -10.9012455743 -0.8665711663 1
-49.2227436304 117.77823174 -9.6315178378 1.970695295 1
-47.4449676275 117.77823174 -8.6064779531 2.0117562301 1
-45.6671916246 117.77823174 -8.5554387693 1.7828922914 1
-43.8894156218 117.77823174 -9.9834409574 0.0185613087 1
-42.1116396189 117.77823174 -11.1819787458 -1.1779101875 1
-40.333863616 117.77823174 -10.0071415057 2.6597949188 1
-38.5560876131 117.77823174 -9.7899688956 3.4555999919 1
-36.7783116102 117.77823174 -9.5511973507 2.5022622131 1
-35.0005356073 117.77823174 -11.3737377277 1.7470412384 1
-33.2227596045 117.77823174 -11.3619404354 -0.4588581569 1
-31.4449836016 117.77823174 -10.5420109592 -2.8374430675 1
-29.6672075987 117.77823174 -9.3040546731 -1.2404111119 1
-27.8894315958 117.77823174 -9.4069454291 -0.9414875046 1
-26.1116555929 117.77823174 -12.4208180628 2.1567675582 1
-24.33387959 117.77823174 -10.0935372452 4.7994669995 1
-22.5561035872 117.77823174 -10.6447957515 -3.08472703 1
-20.7783275843 117.77823174 -11.5444982357 -1.9113909424 1
-19.0005515814 117.77823174 -9.5235584847 -0.2124748859 1
-17.2227755785 117.77823174 -8.8022458951 1.576669264 1
-15.4449995756 117.77823174 -11.5146164714 2.0587334719 1
-13.6672235727 117.77823174 -11.41557573 1.4345895984 1
-11.8894475698 117.77823174 -9.3470052942 2.8680842384 1
-10.111671567 117.77823174 -8.8791049013 3.3199487909 1
-8.3338955641 117.77823174 -10.381458288 2.5177329138 1
-6.5561195612 117.77823174 -10.6368484737 0.1372229959 1