TITLE = "B00007"
VARIABLES = "x", "y", "Vx", "Vy", "isValid"
ZONE T="Frame 0", I=102, J=78, F=POINT
-125.6671117544 126.6671117544 0 -0 0
-123.8893357515 126.6671117544 0 -0 0
-122.1115597486 126.6671117544 0 -0 0
-120.3337837458 126.6671117544 0 -0 0
-118.5560077429 126.6671117544 0 -0 0
-116.77823174 126.6671117544 0 -0 0
-115.0004557371 126.6671117544 0 -0 0
-113.2226797342 126.6671117544 0 -0 0
-111.4449037313 126.6671117544 0 -0 0
-109.6671277285 126.6671117544 0 -0 0
-107.8893517256 126.6671117544 0 -0 0
-106.1115757227 126.6671117544 0 -0 0
-104.3337997198 126.6671117544 0 -0 0
-102.5560237169 126.6671117544 0 -0 0
-100.778247714 126.6671117544 0 -0 0
-99.0004717112 126.6671117544 0 -0 0
-97.2226957083 126.6671117544 0 -0 0
-95.4449197054 126.6671117544 0 -0 0
-93.6671437025 126.6671117544 0 -0 0
-91.8893676996 126.6671117544 0 -0 0
-90.1115916967 126.6671117544 0 -0 0
-88.3338156939 126.6671117544 0 -0 0
-86.556039691 126.6671117544 0 -0 0
-84.7782636881 126.6671117544 0 -0 0
-83.0004876852 126.6671117544 0 -0 0
-81.2227116823 126.6671117544 0 -0 0
-79.4449356794 126.6671117544 0 -0 0
-77.6671596766 126.6671117544 0 -0 0
-75.8893836737 126.6671117544 0 -0 0
-74.1116076708 126.6671117544 0 -0 0
-72.3338316679 126.6671117544 0 -0 0
-70.556055665 126.6671117544 0 -0 0
-68.7782796621 126.6671117544 0 -0 0
-67.0005036592 126.6671117544 0 -0 0
-65.2227276564 126.6671117544 0 -0 0
-63.4449516535 126.6671117544 0 -0 0
-61.6671756506 126.6671117544 0 -0 0
-59.8893996477 126.6671117544 0 -0 0
-58.1116236448 126.6671117544 0 -0 0
-56.3338476419 126.6671117544 0 -0 0
-54.5560716391 126.6671117544 0 -0 0
-52.7782956362 126.6671117544 0 -0 0
-51.0005196333 126.6671117544 0 -0 0
-49.2227436304 126.6671117544 0 -0 0
-47.4449676275 126.6671117544 0 -0 0
-45.6671916246 126.6671117544 0 -0 0
-43.8894156218 126.6671117544 0 -0 0
-42.1116396189 126.6671117544 0 -0 0
-40.333863616 126.6671117544 0 -0 0
-38.5560876131 126.6671117544 0 -0 0
-36.7783116102 126.6671117544 0 -0 0
-35.0005356073 126.6671117544 0 -0 0
-33.2227596045 126.6671117544 0 -0 0
-31.4449836016 126.6671117544 0 -0 0
-29.6672075987 126.6671117544 0 -0 0
-27.8894315958 126.6671117544 0 -0 0
-26.1116555929 126.6671117544 0 -0 0
-24.33387959 126.6671117544 0 -0 0
-22.5561035872 126.6671117544 0 -0 0
-20.7783275843 126.6671117544 0 -0 0
-19.0005515814 126.6671117544 0 -0 0
-17.2227755785 126.6671117544 0 -0 0
-15.4449995756 126.6671117544 0 -0 0
-13.6672235727 126.6671117544 0 -0 0
-11.8894475698 126.6671117544 0 -0 0
-10.111671567 126.6671117544 0 -0 0
-8.3338955641 126.6671117544 0 -0 0
-6.5561195612 126.6671117544 0 -0 0
-4.7783435583 126.6671117544 0 -0 0
-3.0005675554 126.6671117544 0 -0 0
-1.2227915525 126.6671117544 0 -0 0
0.5549844503 126.6671117544 0 -0 0
2.3327604532 126.6671117544 0 -0 0
4.1105364561 126.6671117544 0 -0 0
5.888312459 126.6671117544 0 -0 0
7.6660884619 126.6671117544 0 -0 0
9.4438644648 126.6671117544 0 -0 0
11.2216404676 126.6671117544 0 -0 0
12.9994164705 126.6671117544 0 -0 0
14.7771924734 126.6671117544 0 -0 0
16.5549684763 126.6671117544 0 -0 0
18.3327444792 126.6671117544 0 -0 0
20.1105204821 126.6671117544 0 -0 0
21.8882964849 126.6671117544 0 -0 0
23.6660724878 126.6671117544 0 -0 0
25.4438484907 126.6671117544 0 -0 0
27.2216244936 126.6671117544 0 -0 0
28.9994004965 126.6671117544 0 -0 0
30.7771764994 126.6671117544 0 -0 0
32.5549525023 126.6671117544 0 -0 0
34.3327285051 126.6671117544 0 -0 0
36.110504508 126.6671117544 0 -0 0
37.8882805109 126.6671117544 0 -0 0
39.6660565138 126.6671117544 0 -0 0
41.4438325167 126.6671117544 0 -0 0
43.2216085196 126.6671117544 0 -0 0
44.9993845224 126.6671117544 0 -0 0
46.7771605253 126.6671117544 0 -0 0
48.5549365282 126.6671117544 0 -0 0
50.3327125311 126.6671117544 0 -0 0
52.110488534 126.6671117544 0 -0 0
53.8882645369 126.6671117544 0 -0 0
-125.6671117544 124.8893357515 0 -0 0
-123.8893357515 124.8893357515 -10.5816432476 0.3655031945 1
-122.1115597486 124.8893357515 -10.1434417899 0.329547131 1
-120.3337837458 124.8893357515 -10.0850514911 0.5996500539 1
-118.5560077429 124.8893357515 -10.0619514029 0.6990440117 1
-116.77823174 124.8893357515 -10.2595937649 0.177622381 1
-115.0004557371 124.8893357515 -10.3666686596 0.365417278 1
-113.2226797342 124.8893357515 -10.1863671151 0.3338400931 1
-111.4449037313 124.8893357515 -9.8903045158 0.0299576585 1
-109.6671277285 124.8893357515 -9.8499337751 0.35025874 1
-107.8893517256 124.8893357515 -10.3096344099 0.4537351645 1
-106.1115757227 124.8893357515 -10.1991872918 0.2216374141 1
-104.3337997198 124.8893357515 -9.6860050554 0.1400625425 1
-102.5560237169 124.8893357515 -9.836851553 0.396201167 1
-100.778247714 124.8893357515 -10.0642897641 0.8558087256 1
-99.0004717112 124.8893357515 -10.032842886 0.8303645483 1
-97.2226957083 124.8893357515 -10.0640005119 0.2302763202 1
-95.4449197054 124.8893357515 -10.2741236804 0.2741968451 1
-93.6671437025 124.8893357515 -10.3619060206 0.3785095237 1
-91.8893676996 124.8893357515 -9.9068520375 0.4362711999 1
-90.1115916967 124.8893357515 -9.8263396668 0.5980233678 1
-88.3338156939 124.8893357515 -10.1166086289 0.4126298375 1
-86.556039691 124.8893357515 -9.9737480717 0.2275728137 1
-84.7782636881 124.8893357515 -9.6964668236 0.1261326107 1
-83.0004876852 124.8893357515 -9.8859342288 0.2080797873 1
-81.2227116823 124.8893357515 -9.8944986739 0.2769962917 1
-79.4449356794 124.8893357515 -10.1328626025 0.3505637437 1
-77.6671596766 124.8893357515 -10.3648916196 0.2233242418 1
-75.8893836737 124.8893357515 -10.2326489124 0.2259260804 1
-74.1116076708 124.8893357515 -9.9652852945 0.313549475 1
-72.3338316679 124.8893357515 -9.6758712019 0.4623468636 1
-70.556055665 124.8893357515 0 -0 0
-68.7782796621 124.8893357515 0 -0 0
-67.0005036592 124.8893357515 0 -0 0
-65.2227276564 124.8893357515 0 -0 0
-63.4449516535 124.8893357515 0 -0 0
-61.6671756506 124.8893357515 0 -0 0
-59.8893996477 124.8893357515 -9.6121082567 0.3123051174 1
-58.1116236448 124.8893357515 -9.9699677449 0.1909895596 1
-56.3338476419 124.8893357515 0 -0 0
-54.5560716391 124.8893357515 -10.2711266258 0.106006666 1
-52.7782956362 124.8893357515 -9.8158306445 0.2821154843 1
-51.0005196333 124.8893357515 -10.1838196903 0.8667129639 1
-49.2227436304 124.8893357515 -10.1714119129 0.4095769372 1
-47.4449676275 124.8893357515 -9.0159936677 0.3606603667 1
-45.6671916246 124.8893357515 -9.7666147981 0.5719047458 1
-43.8894156218 124.8893357515 -10.0967533211 0.3772265036 1
-42.1116396189 124.8893357515 -10.2729738309 0.2422631066 1
-40.333863616 124.8893357515 -10.3072888889 0.8116547942 1
-38.5560876131 124.8893357515 -10.1215216218 0.567060486 1
-36.7783116102 124.8893357515 -8.9640843384 0.4174411626 1
-35.0005356073 124.8893357515 -9.0131498308 0.2162790871 1
-33.2227596045 124.8893357515 -9.1468087287 -0.1582582294 1
-31.4449836016 124.8893357515 -8.8210261732 0.1014487946 1
-29.6672075987 124.8893357515 -8.5949583306 1.1198631255 1
-27.8894315958 124.8893357515 -9.6195772662 1.352748444 1
-26.1116555929 124.8893357515 -9.9631388135 0.623988772 1
-24.33387959 124.8893357515 -9.5566777821 0.1768648837 1
-22.5561035872 124.8893357515 -9.5836999595 -0.3377979808 1
-20.7783275843 124.8893357515 -10.3246783925 -0.6114249129 1
-19.0005515814 124.8893357515 -10.2172140096 -0.3164248145 1
-17.2227755785 124.8893357515 -10.4681933472 0.5647779704 1
-15.4449995756 124.8893357515 -10.3249433018 0.6022676438 1
-13.6672235727 124.8893357515 -10.0078025163 0.2516509183 1
-11.8894475698 124.8893357515 -10.3614549588 0.6739449324 1
-10.111671567 124.8893357515 -9.9899805662 0.0685542231 1
-8.3338955641 124.8893357515 -9.4295943619 0.0908638794 1
-6.5561195612 124.8893357515 -9.5231832268 0.7315605506 1
-4.7783435583 124.8893357515 -9.7257128069 1.2596851017 1
-3.0005675554 124.8893357515 0 -0 0
-1.2227915525 124.8893357515 -9.325583823 0.1974977359 1
0.5549844503 124.8893357515 -9.6834433112 0.2181005174 1
2.3327604532 124.8893357515 -9.7134253127 0.1686197617 1
4.1105364561 124.8893357515 -9.392287977 -0.0734972868 1
5.888312459 124.8893357515 -9.2734396552 0.2713573041 1
7.6660884619 124.8893357515 -9.6453235833 0.2828615261 1
9.4438644648 124.8893357515 -9.9562225336 0.4265354263 1
11.2216404676 124.8893357515 -10.7728046402 0.4190162988 1
12.9994164705 124.8893357515 0 -0 0
14.7771924734 124.8893357515 0 -0 0
16.5549684763 124.8893357515 0 -0 0
18.3327444792 124.8893357515 0 -0 0
20.1105204821 124.8893357515 0 -0 0
21.8882964849 124.8893357515 0 -0 0
23.6660724878 124.8893357515 0 -0 0
25.4438484907 124.8893357515 0 -0 0
27.2216244936 124.8893357515 0 -0 0
28.9994004965 124.8893357515 0 -0 0
30.7771764994 124.8893357515 0 -0 0
32.5549525023 124.8893357515 0 -0 0
34.3327285051 124.8893357515 0 -0 0
36.110504508 124.8893357515 0 -0 0
37.8882805109 124.8893357515 -10.1796441475 0.0777286754 1
39.6660565138 124.8893357515 -9.7984210937 0.1145396083 1
41.4438325167 124.8893357515 -9.3770148837 0.1029251268 1
43.2216085196 124.8893357515 -9.2225054784 0.0058194123 1
44.9993845224 124.8893357515 -9.4751014785 0.5317974824 1
46.7771605253 124.8893357515 -9.6911027689 0.8488695347 1
48.5549365282 124.8893357515 -9.5319166411 0.5634620158 1
50.3327125311 124.8893357515 -9.1978932594 0.0555965799 1
52.110488534 124.8893357515 -9.2700602721 -0.2483732031 1
53.8882645369 124.8893357515 0 -0 0
-125.6671117544 123.1115597486 0 -0 0
-123.8893357515 123.1115597486 -9.9295454543 -0.0429568279 1
-122.1115597486 123.1115597486 -10.2655334603 0.1629764783 1
-120.3337837458 123.1115597486 -10.1561373877 0.7357604364 1
-118.5560077429 123.1115597486 -9.9891070816 0.6166515012 1
-116.77823174 123.1115597486 -10.0821532405 0.544273993 1
-115.0004557371 123.1115597486 -10.1946466038 0.7629644705 1
-113.2226797342 123.1115597486 -9.9057422825 0.5289121193 1
-111.4449037313 123.1115597486 -9.6462070915 0.1895003399 1
-109.6671277285 123.1115597486 -10.0087518938 0.221517131 1
-107.8893517256 123.1115597486 -10.3581571964 0.2834300071 1
-106.1115757227 123.1115597486 -10.2960366887 0.2870055662 1
-104.3337997198 123.1115597486 -9.9469979633 0.2186160165 1
-102.5560237169 123.1115597486 -9.7102965194 0.338879097 1
-100.778247714 123.1115597486 -10.0530962736 0.5772186825 1
-99.0004717112 123.1115597486 -9.9812829505 0.4389288842 1
-97.2226957083 123.1115597486 -9.8081310924 0.2130085316 1
-95.4449197054 123.1115597486 -10.2740162847 0.1132608841 1
-93.6671437025 123.1115597486 -10.7581888083 0.1058691995 1
-91.8893676996 123.1115597486 -10.6692952811 0.0590389685 1
-90.1115916967 123.1115597486 -10.2642647597 0.412296195 1
-88.3338156939 123.1115597486 -9.9872097584 0.3280722307 1
-86.556039691 123.1115597486 -9.9556025028 0.2074325495 1
-84.7782636881 123.1115597486 -9.7553769173 0.2201796971 1
-83.0004876852 123.1115597486 -9.7996840666 0.6163880239 1
-81.2227116823 123.1115597486 -10.0335001473 0.8359963762 1
-79.4449356794 123.1115597486 -10.2790524247 0.4193127108 1
-77.6671596766 123.1115597486 -10.5019828824 0.2049366746 1
-75.8893836737 123.1115597486 -10.4178677457 0.0768680783 1
-74.1116076708 123.1115597486 -9.9171419727 0.2968401438 1
-72.3338316679 123.1115597486 -9.7737387095 0.6067696695 1
-70.556055665 123.1115597486 0 -0 0
-68.7782796621 123.1115597486 0 -0 0
-67.0005036592 123.1115597486 0 -0 0
-65.2227276564 123.1115597486 0 -0 0
-63.4449516535 123.1115597486 0 -0 0
-61.6671756506 123.1115597486 0 -0 0
-59.8893996477 123.1115597486 -9.5344454506 0.3127017653 1
-58.1116236448 123.1115597486 -10.0088320826 0.0349651597 1
-56.3338476419 123.1115597486 -10.2530469261 0.181053314 1
-54.5560716391 123.1115597486 -10.4247353395 -0.0522286524 1
-52.7782956362 123.1115597486 -10.1453305214 0.1456872106 1
-51.0005196333 123.1115597486 -10.4644244758 0.420716014 1
-49.2227436304 123.1115597486 -9.6842795653 0.2766683769 1
-47.4449676275 123.1115597486 -9.2643296403 0.5247566236 1
-45.6671916246 123.1115597486 -9.726057905 0.4835338774 1
-43.8894156218 123.1115597486 -10.3139431234 0.3203268565 1
-42.1116396189 123.1115597486 -10.5509080446 0.2915118877 1
-40.333863616 123.1115597486 -9.6600711539 -0.090823785 1
-38.5560876131 123.1115597486 -8.4992272804 0.2580502671 1
-36.7783116102 123.1115597486 -8.8206925307 0.4699562034 1
-35.0005356073 123.1115597486 -9.7469370512 0.404298799 1
-33.2227596045 123.1115597486 -9.2216176744 0.1702149451 1
-31.4449836016 123.1115597486 -8.6331539514 0.3511537038 1
-29.6672075987 123.1115597486 -8.7375310674 0.5570741225 1
-27.8894315958 123.1115597486 -9.679349389 0.5118304832 1
-26.1116555929 123.1115597486 -10.251938603 0.0649600487 1
-24.33387959 123.1115597486 0 -0 0
-22.5561035872 123.1115597486 -8.9482570835 0.072827138 1
-20.7783275843 123.1115597486 -9.8126818041 -0.1233718266 1
-19.0005515814 123.1115597486 -10.4740900843 -0.0027450328 1
-17.2227755785 123.1115597486 -10.697762288 0.3193373845 1
-15.4449995756 123.1115597486 -10.1358553612 0.2216574613 1
-13.6672235727 123.1115597486 -9.942069219 0.5905987485 1
-11.8894475698 123.1115597486 0 -0 0
-10.111671567 123.1115597486 -9.8029460304 0.1388067293 1
-8.3338955641 123.1115597486 -9.1418656649 0.1303997979 1
-6.5561195612 123.1115597486 -9.3929452384 0.3123580993 1
-4.7783435583 123.1115597486 -9.7047792469 0.4687290291 1
-3.0005675554 123.1115597486 -9.4459743464 0.9123360679 1
-1.2227915525 123.1115597486 -9.8263282113 0.470238296 1
0.5549844503 123.1115597486 -9.6879711117 0.1928181495 1
2.3327604532 123.1115597486 -9.5847037508 0.3810583804 1
4.1105364561 123.1115597486 -9.8231822347 0.4941001774 1
5.888312459 123.1115597486 -9.7768402959 0.5147616685 1
7.6660884619 123.1115597486 -9.6134242114 0.4245894171 1
9.4438644648 123.1115597486 -9.77674006 0.2583967971 1
11.2216404676 123.1115597486 -10.1239330122 0.6294774057 1
12.9994164705 123.1115597486 -10.8537766643 0.4441654961 1
14.7771924734 123.1115597486 0 -0 0
16.5549684763 123.1115597486 0 -0 0
18.3327444792 123.1115597486 0 -0 0
20.1105204821 123.1115597486 0 -0 0
21.8882964849 123.1115597486 0 -0 0
23.6660724878 123.1115597486 0 -0 0
25.4438484907 123.1115597486 0 -0 0
27.2216244936 123.1115597486 0 -0 0
28.9994004965 123.1115597486 0 -0 0
30.7771764994 123.1115597486 0 -0 0
32.5549525023 123.1115597486 0 -0 0
34.3327285051 123.1115597486 0 -0 0
36.110504508 123.1115597486 -10.3562799205 0.4716544866 1
37.8882805109 123.1115597486 -10.1794637228 0.1659878523 1
39.6660565138 123.1115597486 -9.5107539703 0.3504005023 1
41.4438325167 123.1115597486 -8.9854990309 0.4127859192 1
43.2216085196 123.1115597486 -9.6019228533 0.2173874103 1
44.9993845224 123.1115597486 -9.8996966233 0.1400453592 1
46.7771605253 123.1115597486 -10.1066165376 0.0776198478 1
48.5549365282 123.1115597486 -8.7763381274 -0.2052789087 1
50.3327125311 123.1115597486 -9.6256916585 -0.2099756785 1
52.110488534 123.1115597486 -9.8018291157 0.2058975077 1
53.8882645369 123.1115597486 0 -0 0
-125.6671117544 121.3337837458 0 -0 0
-123.8893357515 121.3337837458 -9.8115391144 0.1299573278 1
-122.1115597486 121.3337837458 -9.9879830071 0.5149306376 1
-120.3337837458 121.3337837458 -9.8151819748 0.7386672787 1
-118.5560077429 121.3337837458 -9.773233234 0.4375141255 1
-116.77823174 121.3337837458 -9.8718424876 0.3389836287 1
-115.0004557371 121.3337837458 -9.8884215121 0.604215085 1
-113.2226797342 121.3337837458 -9.5600628929 0.6874796481 1
-111.4449037313 121.3337837458 -9.7530743546 0.6413840034 1
-109.6671277285 121.3337837458 -10.1929697997 0.2586817535 1
-107.8893517256 121.3337837458 -10.4343536939 -0.0632932682 1
-106.1115757227 121.3337837458 -10.2980170645 0.1833129185 1
-104.3337997198 121.3337837458 -10.0549449107 0.2787318054 1
-102.5560237169 121.3337837458 -10.0035338972 0.1820313304 1
-100.778247714 121.3337837458 -10.1530386652 0.2062211266 1
-99.0004717112 121.3337837458 -9.8924567246 0.2866619001 1
-97.2226957083 121.3337837458 -9.7625022607 0.23363852 1
-95.4449197054 121.3337837458 -9.6521367633 0.0663891268 1
-93.6671437025 121.3337837458 -10.124382642 0.0755650111 1
-91.8893676996 121.3337837458 -10.18402589 0.2249795667 1
-90.1115916967 121.3337837458 -9.6814328646 0.2920689131 1
-88.3338156939 121.3337837458 -9.8821052159 0.1303410883 1
-86.556039691 121.3337837458 -9.808388842 0.3020481169 1
-84.7782636881 121.3337837458 0 -0 0
-83.0004876852 121.3337837458 -9.6073312982 0.6320577651 1
-81.2227116823 121.3337837458 -10.0064307159 0.6758451194 1
-79.4449356794 121.3337837458 -10.1424609097 0.2707687759 1
-77.6671596766 121.3337837458 -10.2964619755 -0.2089160414 1
-75.8893836737 121.3337837458 -10.1020787134 -0.0877651569 1
-74.1116076708 121.3337837458 -10.0197320251 0.5259780701 1
-72.3338316679 121.3337837458 -10.5501906417 0.5151053345 1
-70.556055665 121.3337837458 0 -0 0
-68.7782796621 121.3337837458 0 -0 0
-67.0005036592 121.3337837458 0 -0 0
-65.2227276564 121.3337837458 0 -0 0
-63.4449516535 121.3337837458 0 -0 0
-61.6671756506 121.3337837458 -10.2512097445 -0.6045372719 1
-59.8893996477 121.3337837458 -9.4783834896 0.3541149598 1
-58.1116236448 121.3337837458 -10.0565773246 0.0206428758 1
-56.3338476419 121.3337837458 -10.3252869679 -0.0334086387 1
-54.5560716391 121.3337837458 -10.3363816545 -0.2325244691 1
-52.7782956362 121.3337837458 -10.2247173857 0.1638127324 1
-51.0005196333 121.3337837458 -10.2687968561 0.4863705545 1
-49.2227436304 121.3337837458 -9.8312268849 0.5374192867 1
-47.4449676275 121.3337837458 -9.7469485067 0.2703835835 1
-45.6671916246 121.3337837458 -10.1942814586 0.3936150798 1
-43.8894156218 121.3337837458 -10.543837115 0.4489997323 1
-42.1116396189 121.3337837458 -10.3418430812 0.2625336775 1
-40.333863616 121.3337837458 -9.863242244 0.1325906691 1
-38.5560876131 121.3337837458 -8.8461524594 0.1959712858 1
-36.7783116102 121.3337837458 -9.9176345607 0.5065967352 1
-35.0005356073 121.3337837458 -10.3580784396 0.5928855599 1
-33.2227596045 121.3337837458 -9.5963640545 0.7761025383 1
-31.4449836016 121.3337837458 -8.4898165576 0.9337793992 1
-29.6672075987 121.3337837458 -8.9816012848 0.4698044176 1
-27.8894315958 121.3337837458 -9.6559371374 0.072900167 1
-26.1116555929 121.3337837458 -9.9096643716 -0.545335062 1
-24.33387959 121.3337837458 -10.1629462719 0.0725106788 1
-22.5561035872 121.3337837458 -9.0901424881 0.3692663381 1
-20.7783275843 121.3337837458 -9.8147480964 0.5370684609 1
-19.0005515814 121.3337837458 -10.2231350898 0.1283292097 1
-17.2227755785 121.3337837458 -10.4115256746 0.0734242578 1
-15.4449995756 121.3337837458 -9.3709033553 -0.0116001621 1
-13.6672235727 121.3337837458 -8.6839177271 0.4170588341 1
-11.8894475698 121.3337837458 -9.6931447182 0.4364100983 1
-10.111671567 121.3337837458 -9.5725823618 0.0352057259 1
-8.3338955641 121.3337837458 -9.3806305372 0.0183689519 1
-6.5561195612 121.3337837458 -9.7066865936 0.1239460353 1
-4.7783435583 121.3337837458 -9.731043927 0.0015293141 1
-3.0005675554 121.3337837458 -9.810264686 0.3957271942 1
-1.2227915525 121.3337837458 -9.8877599549 0.4040210023 1
0.5549844503 121.3337837458 0 -0 0
2.3327604532 121.3337837458 -10.1605864314 0.1954328756 1
4.1105364561 121.3337837458 -10.4394084492 0.4645291432 1
5.888312459 121.3337837458 -9.9913523666 0.7519284935 1
7.6660884619 121.3337837458 -9.5015294 0.8125826926 1
9.4438644648 121.3337837458 -9.9893361923 0.2822787257 1
11.2216404676 121.3337837458 -10.4948432196 0.4122918992 1
12.9994164705 121.3337837458 -10.2339118852 -0.2034803896 1
14.7771924734 121.3337837458 0 -0 0
16.5549684763 121.3337837458 0 -0 0
18.3327444792 121.3337837458 0 -0 0
20.1105204821 121.3337837458 0 -0 0
21.8882964849 121.3337837458 0 -0 0
23.6660724878 121.3337837458 0 -0 0
25.4438484907 121.3337837458 0 -0 0
27.2216244936 121.3337837458 0 -0 0
28.9994004965 121.3337837458 0 -0 0
30.7771764994 121.3337837458 0 -0 0
32.5549525023 121.3337837458 0 -0 0
34.3327285051 121.3337837458 0 -0 0
36.110504508 121.3337837458 -10.2109750383 0.3391483021 1
37.8882805109 121.3337837458 -10.381125546 0.2761356945 1
39.6660565138 121.3337837458 -9.9110934497 0.1236768302 1
41.4438325167 121.3337837458 -9.3845053723 -0.0267887709 1
43.2216085196 121.3337837458 -9.86995662 -0.0677065134 1
44.9993845224 121.3337837458 -9.7565811806 -0.1285024747 1
46.7771605253 121.3337837458 -9.3552364779 -0.3832535475 1
48.5549365282 121.3337837458 -8.9242691911 -0.2747338233 1
50.3327125311 121.3337837458 -10.1104111839 -0.0569211263 1
52.110488534 121.3337837458 -9.903087462 0.2750989685 1
53.8882645369 121.3337837458 0 -0 0
-125.6671117544 119.5560077429 0 -0 0
-123.8893357515 119.5560077429 -9.7915048139 0.487246903 1
-122.1115597486 119.5560077429 -9.916814058 0.3786398304 1
-120.3337837458 119.5560077429 -9.903210609 0.224700338 1
-118.5560077429 119.5560077429 -9.8072790869 0.2953165576 1
-116.77823174 119.5560077429 -9.9321329734 0.3294096645 1
-115.0004557371 119.5560077429 -9.721538696 0.5868327411 1
-113.2226797342 119.5560077429 -9.6166518087 0.556494186 1
-111.4449037313 119.5560077429 -10.0269475808 0.405286839 1
-109.6671277285 119.5560077429 -10.5162063623 0.0206428758 1
-107.8893517256 119.5560077429 -10.0494705964 -0.2329340045 1
-106.1115757227 119.5560077429 -9.7566355943 0.247140301 1
-104.3337997198 119.5560077429 -9.9290858009 0.3676912019 1
-102.5560237169 119.5560077429 -9.9906435553 0.322411764 1
-100.778247714 119.5560077429 -10.1672592811 0.1258820209 1
-99.0004717112 119.5560077429 -10.0604621832 0.2105842538 1
-97.2226957083 119.5560077429 -10.0010351584 0.1683992426 1
-95.4449197054 119.5560077429 -9.7972826998 -0.05184346 1
-93.6671437025 119.5560077429 -9.8479090091 0.2858900834 1
-91.8893676996 119.5560077429 -9.6130662259 0.5018140489 1
-90.1115916967 119.5560077429 -9.3472877679 0.1082333358 1
-88.3338156939 119.5560077429 -9.9106738907 -0.0162468139 1
-86.556039691 119.5560077429 -9.9336494 0.3639194667 1
-84.7782636881 119.5560077429 -9.7221601588 0.6328353096 1
-83.0004876852 119.5560077429 -9.795995384 0.2968544633 1
-81.2227116823 119.5560077429 -9.9617598533 0.2934249622 1
-79.4449356794 119.5560077429 -9.766716466 0.0331508892 1
-77.6671596766 119.5560077429 -9.7021516333 -0.546149837 1
-75.8893836737 119.5560077429 -9.8956614108 -0.0623052282 1
-74.1116076708 119.5560077429 -10.0220947293 0.3000620133 1
-72.3338316679 119.5560077429 -10.2703490813 0.3921931614 1
-70.556055665 119.5560077429 0 -0 0
-68.7782796621 119.5560077429 0 -0 0
-67.0005036592 119.5560077429 0 -0 0
-65.2227276564 119.5560077429 0 -0 0
-63.4449516535 119.5560077429 0 -0 0
-61.6671756506 119.5560077429 -10.5209145876 -0.4124279337 1
-59.8893996477 119.5560077429 -9.9425560792 0.1927780551 1
-58.1116236448 119.5560077429 -10.1353942759 0.0978403008 1
-56.3338476419 119.5560077429 -10.3634324707 0.1469788223 1
-54.5560716391 119.5560077429 -10.1343489582 0.0577702679 1
-52.7782956362 119.5560077429 -9.9384478376 0.2441346548 1
-51.0005196333 119.5560077429 -9.8040758327 0.3421926107 1
-49.2227436304 119.5560077429 -9.6677578185 0.0874988157 1
-47.4449676275 119.5560077429 -9.8214395613 0.0179751679 1
-45.6671916246 119.5560077429 -10.2910148682 0.2958549678 1
-43.8894156218 119.5560077429 -10.2836518224 0.6026356529 1
-42.1116396189 119.5560077429 -9.9997908008 0.3534261957 1
-40.333863616 119.5560077429 -9.7650239106 0.0415835956 1
-38.5560876131 119.5560077429 -9.8948294525 0.075961659 1
-36.7783116102 119.5560077429 -10.5128885527 0.4160349956 1
-35.0005356073 119.5560077429 -10.651324409 0.2845311704 1
-33.2227596045 119.5560077429 -10.657126638 0.8343281637 1
-31.4449836016 119.5560077429 -10.7257725054 0.4015551981 1
-29.6672075987 119.5560077429 -9.8150001182 0.3921158365 1
-27.8894315958 119.5560077429 -9.8177594704 -0.4374024341 1
-26.1116555929 119.5560077429 -9.7404374665 -0.814819386 1
-24.33387959 119.5560077429 -9.4151818657 -0.1989869556 1
-22.5561035872 119.5560077429 -9.5672483779 0.3787744329 1
-20.7783275843 119.5560077429 -9.9265426719 0.5068401653 1
-19.0005515814 119.5560077429 -10.08345058 0.3262307533 1
-17.2227755785 119.5560077429 -9.9650432963 0.0924805419 1
-15.4449995756 119.5560077429 -9.2291511212 -0.1914578046 1
-13.6672235727 119.5560077429 -8.6861572844 -0.0153747612 1
-11.8894475698 119.5560077429 -9.6039347318 -0.6992645308 1
-10.111671567 119.5560077429 0 -0 0
-8.3338955641 119.5560077429 -9.8200219387 -0.4346044194 1
-6.5561195612 119.5560077429 -10.2151434215 0.0239506618 1
-4.7783435583 119.5560077429 -9.919060775 -0.0412871836 1
-3.0005675554 119.5560077429 -9.7061796862 0.3522434116 1
-1.2227915525 119.5560077429 -9.6219700413 0.4732568297 1
0.5549844503 119.5560077429 -9.8421296912 0.3153293789 1
2.3327604532 119.5560077429 -9.8680979593 0.3678172128 1
4.1105364561 119.5560077429 -9.9330193455 0.6162992435 1
5.888312459 119.5560077429 -9.7902704799 0.7409326109 1
7.6660884619 119.5560077429 -9.8134435972 0.6554929278 1
9.4438644648 119.5560077429 -9.7985957907 0.0935960247 1
11.2216404676 119.5560077429 -9.9207347152 0.0344467967 1
12.9994164705 119.5560077429 0 -0 0
14.7771924734 119.5560077429 0 -0 0
16.5549684763 119.5560077429 0 -0 0
18.3327444792 119.5560077429 0 -0 0
20.1105204821 119.5560077429 0 -0 0
21.8882964849 119.5560077429 0 -0 0
23.6660724878 119.5560077429 0 -0 0
25.4438484907 119.5560077429 0 -0 0
27.2216244936 119.5560077429 0 -0 0
28.9994004965 119.5560077429 0 -0 0
30.7771764994 119.5560077429 0 -0 0
32.5549525023 119.5560077429 0 -0 0
34.3327285051 119.5560077429 0 -0 0
36.110504508 119.5560077429 -9.7391644701 0.3575702358 1
37.8882805109 119.5560077429 -10.0732594488 0.3410642405 1
39.6660565138 119.5560077429 -9.9961722834 0.1569465705 1
41.4438325167 119.5560077429 -9.7509980387 0.0109701076 1
43.2216085196 119.5560077429 -9.6300805607 0.0474531258 1
44.9993845224 119.5560077429 -9.2836522656 -0.2312357213 1
46.7771605253 119.5560077429 -9.1984689001 -0.305105313 1
48.5549365282 119.5560077429 -9.3244081987 0.0693589745 1
50.3327125311 119.5560077429 -9.5950753067 -0.0960403497 1
52.110488534 119.5560077429 -9.2703208856 -0.2868981706 1
53.8882645369 119.5560077429 0 -0 0
-125.6671117544 117.77823174 0 -0 0
-123.8893357515 117.77823174 -9.8278804364 0.184782091 1
-122.1115597486 117.77823174 -9.8960451713 0.1055899708 1
-120.3337837458 117.77823174 -9.9430615548 0.0717775245 1
-118.5560077429 117.77823174 -9.9433951972 0.1967158956 1
-116.77823174 117.77823174 -10.0649957116 0.2481884826 1
-115.0004557371 117.77823174 -9.7701874934 0.2678662295 1
-113.2226797342 117.77823174 -9.4339503294 0.3419735236 1
-111.4449037313 117.77823174 -9.8296803875 0.3477485457 1
-109.6671277285 117.77823174 -9.9611197753 0.093316796 1
-107.8893517256 117.77823174 -9.6532092879 0.0581998505 1
-106.1115757227 117.77823174 -9.4703230881 0.4512879756 1
-104.3337997198 117.77823174 -10.1757850638 0.5916526578 1
-102.5560237169 117.77823174 -10.075550556 0.4279115225 1
-100.778247714 117.77823174 -9.9627364378 0.1253035163 1
-99.0004717112 117.77823174 -10.1140697957 0.1266151752 1
-97.2226957083 117.77823174 -10.1707961779 0.1612194855 1
-95.4449197054 117.77823174 -10.0214217166 0.102227771 1
-93.6671437025 117.77823174 -10.6711840126 0.0196290609 1
-91.8893676996 117.77823174 -9.8737512663 -0.14392449 1
-90.1115916967 117.77823174 -9.8159108333 0.5432830891 1
-88.3338156939 117.77823174 -10.1086771021 0.6879851237 1
-86.556039691 117.77823174 -10.1503322948 0.4162798577 1
-84.7782636881 117.77823174 -10.0002690694 0.3526013971 1
-83.0004876852 117.77823174 -9.9571747751 0.3554867602 1
-81.2227116823 117.77823174 -10.0535401756 0.3290015611 1
-79.4449356794 117.77823174 -9.6945036311 0.02567472 1
-77.6671596766 117.77823174 -9.5774982187 0.0158845326 1
-75.8893836737 117.77823174 -9.9827893535 0.1375652356 1
-74.1116076708 117.77823174 -9.7668797074 0.0288951575 1
-72.3338316679 117.77823174 -9.4926928859 0.0744523921 1
-70.556055665 117.77823174 0 -0 0
-68.7782796621 117.77823174 0 -0 0
-67.0005036592 117.77823174 0 -0 0
-65.2227276564 117.77823174 0 -0 0
-63.4449516535 117.77823174 0 -0 0
-61.6671756506 117.77823174 0 -0 0
-59.8893996477 117.77823174 -10.139070071 0.0812526847 1
-58.1116236448 117.77823174 -10.1421415866 0.1693070938 1
-56.3338476419 117.77823174 -10.0413042312 0.4273974553 1
-54.5560716391 117.77823174 -9.676041603 0.4418171112 1
-52.7782956362 117.77823174 -9.7134697029 0.3119671791 1
-51.0005196333 117.77823174 -9.695049201 0.1725661938 1
-49.2227436304 117.77823174 -9.6447780134 -0.0693160162 1
-47.4449676275 117.77823174 -9.8482526752 -0.0962923715 1
-45.6671916246 117.77823174 -10.3184938351 0.2490190089 1
-43.8894156218 117.77823174 -10.324124231 0.423332172 1
-42.1116396189 117.77823174 -10.0743534525 0.274123816 1
-40.333863616 117.77823174 -9.8325285201 -0.0389345029 1
-38.5560876131 117.77823174 -10.1812336031 0.0732524248 1
-36.7783116102 117.77823174 -10.6764234883 0.3837719105 1
-35.0005356073 117.77823174 -10.1147800389 -0.0164329663 1
-33.2227596045 117.77823174 -9.6977312284 -0.1871505231 1
-31.4449836016 117.77823174 -9.7519445524 0.3180715478 1
-29.6672075987 117.77823174 -9.9339057176 0.3852582663 1
-27.8894315958 117.77823174 -10.0136706146 -0.2589223198 1
-26.1116555929 117.77823174 -10.160153985 -0.3400303783 1
-24.33387959 117.77823174 -9.7993046019 0.1469974376 1
-22.5561035872 117.77823174 -9.3954310897 0.5676232392 1
-20.7783275843 117.77823174 -9.9245436809 0.6460034482 1
-19.0005515814 117.77823174 -10.133169038 0.2641789789 1
-17.2227755785 117.77823174 -10.4093906491 -0.2297679808 1
-15.4449995756 117.77823174 -10.016179377 0.1651873967 1
-13.6672235727 117.77823174 -9.6571184895 0.5862886031 1
-11.8894475698 117.77823174 -10.4900548056 0.0788785249 1
-10.111671567 117.77823174 0 -0 0
-8.3338955641 117.77823174 -10.1860392004 -0.1653606617 1
-6.5561195612 117.77823174 -10.4733554981 -0.1586319663 1
-4.7783435583 117.77823174 -10.2267564711 0.112375944 1
-3.0005675554 117.77823174 -9.7821900312 0.519635999 1
-1.2227915525 117.77823174 -9.7017506896 0.6782235751 1
0.5549844503 117.77823174 -9.6257174335 0.48268044 1
2.3327604532 117.77823174 -9.9065570575 0.4667744283 1
4.1105364561 117.77823174 -10.0735157664 1.0747311777 1