TITLE = "B00010"
VARIABLES = "x", "y", "Vx", "Vy", "isValid"
ZONE T="Frame 0", I=102, J=78, F=POINT
-125.6671117544 126.6671117544 0 -0 0
-123.8893357515 126.6671117544 0 -0 0
-122.1115597486 126.6671117544 0 -0 0
-120.3337837458 126.6671117544 0 -0 0
-118.5560077429 126.6671117544 0 -0 0
-116.77823174 126.6671117544 0 -0 0
-115.0004557371 126.6671117544 0 -0 0
-113.2226797342 126.6671117544 0 -0 0
-111.4449037313 126.6671117544 0 -0 0
-109.6671277285 126.6671117544 0 -0 0
-107.8893517256 126.6671117544 0 -0 0
-106.1115757227 126.6671117544 0 -0 0
-104.3337997198 126.6671117544 0 -0 0
-102.5560237169 126.6671117544 0 -0 0
-100.778247714 126.6671117544 0 -0 0
-99.0004717112 126.6671117544 0 -0 0
-97.2226957083 126.6671117544 0 -0 0
-95.4449197054 126.6671117544 0 -0 0
-93.6671437025 126.6671117544 0 -0 0
-91.8893676996 126.6671117544 0 -0 0
-90.1115916967 126.6671117544 0 -0 0
-88.3338156939 126.6671117544 0 -0 0
-86.556039691 126.6671117544 0 -0 0
-84.7782636881 126.6671117544 0 -0 0
-83.0004876852 126.6671117544 0 -0 0
-81.2227116823 126.6671117544 0 -0 0
-79.4449356794 126.6671117544 0 -0 0
-77.6671596766 126.6671117544 0 -0 0
-75.8893836737 126.6671117544 0 -0 0
-74.1116076708 126.6671117544 0 -0 0
-72.3338316679 126.6671117544 0 -0 0
-70.556055665 126.6671117544 0 -0 0
-68.7782796621 126.6671117544 0 -0 0
-67.0005036592 126.6671117544 0 -0 0
-65.2227276564 126.6671117544 0 -0 0
-63.4449516535 126.6671117544 0 -0 0
-61.6671756506 126.6671117544 0 -0 0
-59.8893996477 126.6671117544 0 -0 0
-58.1116236448 126.6671117544 0 -0 0
-56.3338476419 126.6671117544 0 -0 0
-54.5560716391 126.6671117544 0 -0 0
-52.7782956362 126.6671117544 0 -0 0
-51.0005196333 126.6671117544 0 -0 0
-49.2227436304 126.6671117544 0 -0 0
-47.4449676275 126.6671117544 0 -0 0
-45.6671916246 126.6671117544 0 -0 0
-43.8894156218 126.6671117544 0 -0 0
-42.1116396189 126.6671117544 0 -0 0
-40.333863616 126.6671117544 0 -0 0
-38.5560876131 126.6671117544 0 -0 0
-36.7783116102 126.6671117544 0 -0 0
-35.0005356073 126.6671117544 0 -0 0
-33.2227596045 126.6671117544 0 -0 0
-31.4449836016 126.6671117544 0 -0 0
-29.6672075987 126.6671117544 0 -0 0
-27.8894315958 126.6671117544 0 -0 0
-26.1116555929 126.6671117544 0 -0 0
-24.33387959 126.6671117544 0 -0 0
-22.5561035872 126.6671117544 0 -0 0
-20.7783275843 126.6671117544 0 -0 0
-19.0005515814 126.6671117544 0 -0 0
-17.2227755785 126.6671117544 0 -0 0
-15.4449995756 126.6671117544 0 -0 0
-13.6672235727 126.6671117544 0 -0 0
-11.8894475698 126.6671117544 0 -0 0
-10.111671567 126.6671117544 0 -0 0
-8.3338955641 126.6671117544 0 -0 0
-6.5561195612 126.6671117544 0 -0 0
-4.7783435583 126.6671117544 0 -0 0
-3.0005675554 126.6671117544 0 -0 0
-1.2227915525 126.6671117544 0 -0 0
0.5549844503 126.6671117544 0 -0 0
2.3327604532 126.6671117544 0 -0 0
4.1105364561 126.6671117544 0 -0 0
5.888312459 126.6671117544 0 -0 0
7.6660884619 126.6671117544 0 -0 0
9.4438644648 126.6671117544 0 -0 0
11.2216404676 126.6671117544 0 -0 0
12.9994164705 126.6671117544 0 -0 0
14.7771924734 126.6671117544 0 -0 0
16.5549684763 126.6671117544 0 -0 0
18.3327444792 126.6671117544 0 -0 0
20.1105204821 126.6671117544 0 -0 0
21.8882964849 126.6671117544 0 -0 0
23.6660724878 126.6671117544 0 -0 0
25.4438484907 126.6671117544 0 -0 0
27.2216244936 126.6671117544 0 -0 0
28.9994004965 126.6671117544 0 -0 0
30.7771764994 126.6671117544 0 -0 0
32.5549525023 126.6671117544 0 -0 0
34.3327285051 126.6671117544 0 -0 0
36.110504508 126.6671117544 0 -0 0
37.8882805109 126.6671117544 0 -0 0
39.6660565138 126.6671117544 0 -0 0
41.4438325167 126.6671117544 0 -0 0
43.2216085196 126.6671117544 0 -0 0
44.9993845224 126.6671117544 0 -0 0
46.7771605253 126.6671117544 0 -0 0
48.5549365282 126.6671117544 0 -0 0
50.3327125311 126.6671117544 0 -0 0
52.110488534 126.6671117544 0 -0 0
53.8882645369 126.6671117544 0 -0 0
-125.6671117544 124.8893357515 0 -0 0
-123.8893357515 124.8893357515 -9.862056596 0.1381294208 1
-122.1115597486 124.8893357515 -9.4835026822 0.4952357074 1
-120.3337837458 124.8893357515 -9.9930019638 0.5842194469 1
-118.5560077429 124.8893357515 -10.0383243599 0.2813250523 1
-116.77823174 124.8893357515 -9.7958364384 0.088206195 1
-115.0004557371 124.8893357515 -9.8595578573 -0.029402065 1
-113.2226797342 124.8893357515 -9.6963708835 0.1159701184 1
-111.4449037313 124.8893357515 -9.8204472255 0.2313946669 1
-109.6671277285 124.8893357515 -9.8617315452 0.1232486795 1
-107.8893517256 124.8893357515 -9.7324873245 0.1697853625 1
-106.1115757227 124.8893357515 -9.8481395518 0.3895254534 1
-104.3337997198 124.8893357515 -9.9909084646 0.3115304368 1
-102.5560237169 124.8893357515 -10.4033850844 0.2805288926 1
-100.778247714 124.8893357515 -10.3245208789 0.6239658609 1
-99.0004717112 124.8893357515 -9.977320767 0.7567870727 1
-97.2226957083 124.8893357515 -9.7849092891 0.774875364 1
-95.4449197054 124.8893357515 -9.9971975539 0.5736402595 1
-93.6671437025 124.8893357515 -9.8032166675 0.5907390788 1
-91.8893676996 124.8893357515 -9.1333642253 0.5194255035 1
-90.1115916967 124.8893357515 -9.8105038203 0.3030404527 1
-88.3338156939 124.8893357515 -10.071303416 0.4482622822 1
-86.556039691 124.8893357515 -9.5401961297 0.585007015 1
-84.7782636881 124.8893357515 -9.713640104 0.2909276553 1
-83.0004876852 124.8893357515 -9.9658451839 -0.0467543381 1
-81.2227116823 124.8893357515 -10.102730247 0.1977282786 1
-79.4449356794 124.8893357515 -10.134502176 0.1682717998 1
-77.6671596766 124.8893357515 -9.9769584857 -0.1613841588 1
-75.8893836737 124.8893357515 -10.1527766198 0.0703441506 1
-74.1116076708 124.8893357515 -10.2327863788 0.3041974618 1
-72.3338316679 124.8893357515 -9.7360084699 -0.1591002113 1
-70.556055665 124.8893357515 0 -0 0
-68.7782796621 124.8893357515 0 -0 0
-67.0005036592 124.8893357515 0 -0 0
-65.2227276564 124.8893357515 0 -0 0
-63.4449516535 124.8893357515 0 -0 0
-61.6671756506 124.8893357515 0 -0 0
-59.8893996477 124.8893357515 -9.5377174381 0.674941564 1
-58.1116236448 124.8893357515 -9.9285473907 0.2975904815 1
-56.3338476419 124.8893357515 -9.7664744678 0.1066524718 1
-54.5560716391 124.8893357515 -9.4211759749 0.0764929095 1
-52.7782956362 124.8893357515 -9.6060912365 0.1993320536 1
-51.0005196333 124.8893357515 -10.1792288843 0.1976280426 1
-49.2227436304 124.8893357515 -10.4942346443 0.3047487595 1
-47.4449676275 124.8893357515 -9.9093421846 0.5757609656 1
-45.6671916246 124.8893357515 -9.475533925 0.1617965581 1
-43.8894156218 124.8893357515 -9.5586696134 0.1939479517 1
-42.1116396189 124.8893357515 -10.0546184279 0.2224421655 1
-40.333863616 124.8893357515 -10.5651444119 -0.0408891037 1
-38.5560876131 124.8893357515 -10.6880436976 -0.1120265501 1
-36.7783116102 124.8893357515 -10.3540102924 0.0571846036 1
-35.0005356073 124.8893357515 -10.0199597038 0.2666848774 1
-33.2227596045 124.8893357515 -9.8525227262 0.6721335258 1
-31.4449836016 124.8893357515 -9.2771140184 0.8223012829 1
-29.6672075987 124.8893357515 -8.5084905132 0.3301872091 1
-27.8894315958 124.8893357515 -9.3854905484 0.463571174 1
-26.1116555929 124.8893357515 -9.7367401923 0.097364896 1
-24.33387959 124.8893357515 -9.8105968965 -0.2141741324 1
-22.5561035872 124.8893357515 -9.7331388581 -0.2078220377 1
-20.7783275843 124.8893357515 -9.7974860356 0.2493082612 1
-19.0005515814 124.8893357515 -9.9389289702 0.4397035649 1
-17.2227755785 124.8893357515 -9.7833642236 0.0643113789 1
-15.4449995756 124.8893357515 -9.6615131195 0.3655991346 1
-13.6672235727 124.8893357515 -10.0261041669 0.4292690035 1
-11.8894475698 124.8893357515 -9.5413130445 0.045794937 1
-10.111671567 124.8893357515 -9.3358107528 0.0157728411 1
-8.3338955641 124.8893357515 -9.7632225275 0.2578354758 1
-6.5561195612 124.8893357515 -10.1586976999 0.3619906408 1
-4.7783435583 124.8893357515 -10.7237864018 0.4481820934 1
-3.0005675554 124.8893357515 -10.1191245509 0.1614314129 1
-1.2227915525 124.8893357515 -9.5611024828 -0.2795437165 1
0.5549844503 124.8893357515 -9.473978836 0.0100937591 1
2.3327604532 124.8893357515 -9.9688608537 0.0924576308 1
4.1105364561 124.8893357515 -10.1377584121 0.3588432323 1
5.888312459 124.8893357515 -9.8341408868 0.5046722052 1
7.6660884619 124.8893357515 -9.521376116 -0.0850616504 1
9.4438644648 124.8893357515 -9.695322702 -0.1594739482 1
11.2216404676 124.8893357515 -9.7455051092 0.0508110298 1
12.9994164705 124.8893357515 -9.888792385 0.1482417951 1
14.7771924734 124.8893357515 0 -0 0
16.5549684763 124.8893357515 0 -0 0
18.3327444792 124.8893357515 0 -0 0
20.1105204821 124.8893357515 0 -0 0
21.8882964849 124.8893357515 0 -0 0
23.6660724878 124.8893357515 0 -0 0
25.4438484907 124.8893357515 0 -0 0
27.2216244936 124.8893357515 0 -0 0
28.9994004965 124.8893357515 0 -0 0
30.7771764994 124.8893357515 0 -0 0
32.5549525023 124.8893357515 0 -0 0
34.3327285051 124.8893357515 0 -0 0
36.110504508 124.8893357515 0 -0 0
37.8882805109 124.8893357515 -9.7136673109 -0.0970956909 1
39.6660565138 124.8893357515 -9.8160926899 0.2222674686 1
41.4438325167 124.8893357515 -9.2709466442 -0.1334985204 1
43.2216085196 124.8893357515 -9.0339187176 -0.2206636935 1
44.9993845224 124.8893357515 -9.7656339178 0.0597033896 1
46.7771605253 124.8893357515 -10.1510411061 0.0256704242 1
48.5549365282 124.8893357515 -10.3683254165 -0.1626399719 1
50.3327125311 124.8893357515 -9.6117588629 -0.0407444776 1
52.110488534 124.8893357515 -9.56502314 0.3944914283 1
53.8882645369 124.8893357515 0 -0 0
-125.6671117544 123.1115597486 0 -0 0
-123.8893357515 123.1115597486 -9.8680263622 0.1854508079 1
-122.1115597486 123.1115597486 -9.5712921821 0.5502394634 1
-120.3337837458 123.1115597486 -9.9390406616 0.6804760198 1
-118.5560077429 123.1115597486 -9.9772864004 0.2405820067 1
-116.77823174 123.1115597486 -9.8119071235 0.0470736612 1
-115.0004557371 123.1115597486 -10.2334665513 0.1908621167 1
-113.2226797342 123.1115597486 -10.085695865 0.050831077 1
-111.4449037313 123.1115597486 -9.7961328504 0.2669197158 1
-109.6671277285 123.1115597486 -10.0344251819 0.05525005 1
-107.8893517256 123.1115597486 -9.9766806889 0.1046148184 1
-106.1115757227 123.1115597486 -9.8654145 0.5101851818 1
-104.3337997198 123.1115597486 -9.9996705177 0.3394132113 1
-102.5560237169 123.1115597486 -10.1461295451 0.0953845202 1
-100.778247714 123.1115597486 -10.2006722157 0.6015101465 1
-99.0004717112 123.1115597486 -10.1280469815 0.9054727699 1
-97.2226957083 123.1115597486 -9.9137353827 0.2868938747 1
-95.4449197054 123.1115597486 -9.7938116724 -0.0220934331 1
-93.6671437025 123.1115597486 -9.9416782988 0.4322288276 1
-91.8893676996 123.1115597486 -9.856108309 0.3902872466 1
-90.1115916967 123.1115597486 -9.8708243769 0.2014370084 1
-88.3338156939 123.1115597486 -10.4084283841 0.5224053748 1
-86.556039691 123.1115597486 -9.920146187 0.9268430722 1
-84.7782636881 123.1115597486 -9.7264817598 0.6465590417 1
-83.0004876852 123.1115597486 -9.5633176971 0.1823263105 1
-81.2227116823 123.1115597486 -9.8896400947 0.2496991814 1
-79.4449356794 123.1115597486 -10.0930560469 0.423950771 1
-77.6671596766 123.1115597486 -9.9184851343 0.1812008041 1
-75.8893836737 123.1115597486 -9.9525295552 0.1708006094 1
-74.1116076708 123.1115597486 -10.2613593494 0.4007948369 1
-72.3338316679 123.1115597486 -10.0914379525 0.1807440146 1
-70.556055665 123.1115597486 0 -0 0
-68.7782796621 123.1115597486 0 -0 0
-67.0005036592 123.1115597486 0 -0 0
-65.2227276564 123.1115597486 0 -0 0
-63.4449516535 123.1115597486 0 -0 0
-61.6671756506 123.1115597486 0 -0 0
-59.8893996477 123.1115597486 -9.9769713732 0.6266822549 1
-58.1116236448 123.1115597486 -9.9194846298 0.1804289873 1
-56.3338476419 123.1115597486 -9.9707495852 0.0040638514 1
-54.5560716391 123.1115597486 -9.8062036985 0.3081066635 1
-52.7782956362 123.1115597486 -9.5417139882 0.2502433194 1
-51.0005196333 123.1115597486 -9.9092820431 -0.1472437316 1
-49.2227436304 123.1115597486 -10.0441094056 -0.1281616725 1
-47.4449676275 123.1115597486 -9.5089382679 0.018466324 1
-45.6671916246 123.1115597486 -9.2004478439 0.1813812288 1
-43.8894156218 123.1115597486 -9.314797004 0.24301774 1
-42.1116396189 123.1115597486 -9.7990826509 0.287134441 1
-40.333863616 123.1115597486 -10.3871611815 0.2562359966 1
-38.5560876131 123.1115597486 -10.5538019994 -0.0795429459 1
-36.7783116102 123.1115597486 -10.1424924124 0.0113581639 1
-35.0005356073 123.1115597486 -10.0213959417 0.2735539031 1
-33.2227596045 123.1115597486 -9.8084045933 0.764185917 1
-31.4449836016 123.1115597486 -10.5797015343 -0.1210205778 1
-29.6672075987 123.1115597486 -9.4365378486 0.2284462983 1
-27.8894315958 123.1115597486 -10.217897046 0.6265992022 1
-26.1116555929 123.1115597486 -10.0030083745 0.5967360519 1
-24.33387959 123.1115597486 -10.0105976671 0.0459538825 1
-22.5561035872 123.1115597486 -10.0981108022 -0.0054757462 1
-20.7783275843 123.1115597486 -10.1811892129 0.4685514683 1
-19.0005515814 123.1115597486 -10.1808842092 0.688839993 1
-17.2227755785 123.1115597486 -9.8118455499 0.463300537 1
-15.4449995756 123.1115597486 -9.7810745484 0.6092641124 1
-13.6672235727 123.1115597486 -10.1586246709 0.3925425552 1
-11.8894475698 123.1115597486 -9.7276674078 -0.1960013565 1
-10.111671567 123.1115597486 -9.3389753446 -0.0749091816 1
-8.3338955641 123.1115597486 -9.8002024296 0.4794528427 1
-6.5561195612 123.1115597486 -9.92767677 1.0539579951 1
-4.7783435583 123.1115597486 -10.8820188563 0.6103165898 1
-3.0005675554 123.1115597486 -10.3697774057 -0.0405210946 1
-1.2227915525 123.1115597486 -9.5294193342 0.1131090983 1
0.5549844503 123.1115597486 -9.4016586055 0.4149739266 1
2.3327604532 123.1115597486 -9.8435115152 0.1906988753 1
4.1105364561 123.1115597486 -10.0539654624 0.2422645386 1
5.888312459 123.1115597486 -9.8887479948 0.3549354626 1
7.6660884619 123.1115597486 -9.4483900325 -0.3229401506 1
9.4438644648 123.1115597486 -9.2213584929 0.1438972831 1
11.2216404676 123.1115597486 -9.7381721342 0.2764292426 1
12.9994164705 123.1115597486 -9.8689771717 0.692742035 1
14.7771924734 123.1115597486 0 -0 0
16.5549684763 123.1115597486 0 -0 0
18.3327444792 123.1115597486 0 -0 0
20.1105204821 123.1115597486 0 -0 0
21.8882964849 123.1115597486 0 -0 0
23.6660724878 123.1115597486 0 -0 0
25.4438484907 123.1115597486 0 -0 0
27.2216244936 123.1115597486 0 -0 0
28.9994004965 123.1115597486 0 -0 0
30.7771764994 123.1115597486 0 -0 0
32.5549525023 123.1115597486 0 -0 0
34.3327285051 123.1115597486 0 -0 0
36.110504508 123.1115597486 -10.3664495725 -0.150368229 1
37.8882805109 123.1115597486 -10.058047929 0.3051654546 1
39.6660565138 123.1115597486 -9.4417458216 0.6896891346 1
41.4438325167 123.1115597486 -9.4812445097 -0.0704458184 1
43.2216085196 123.1115597486 -9.4101772284 -0.3673819024 1
44.9993845224 123.1115597486 -9.539226705 0.147603149 1
46.7771605253 123.1115597486 -10.112334282 0.3041015217 1
48.5549365282 123.1115597486 -10.8877008021 0.1790256842 1
50.3327125311 123.1115597486 -9.9913724138 0.2347225001 1
52.110488534 123.1115597486 -9.7476931166 0.2091895423 1
53.8882645369 123.1115597486 0 -0 0
-125.6671117544 121.3337837458 0 -0 0
-123.8893357515 121.3337837458 -9.904592433 0.096870876 1
-122.1115597486 121.3337837458 -9.6299459582 0.4986265461 1
-120.3337837458 121.3337837458 -9.5574868293 0.6130931253 1
-118.5560077429 121.3337837458 -9.7259419177 0.2312027866 1
-116.77823174 121.3337837458 -9.9975125811 0.1888044161 1
-115.0004557371 121.3337837458 -10.2850651492 0.4354922234 1
-113.2226797342 121.3337837458 -10.2230821079 0.4252409507 1
-111.4449037313 121.3337837458 -9.9902025172 0.3913067893 1
-109.6671277285 121.3337837458 -10.1126006232 0.0810708281 1
-107.8893517256 121.3337837458 -10.1669585733 -0.0230113079 1
-106.1115757227 121.3337837458 -10.0533640467 0.5754158675 1
-104.3337997198 121.3337837458 -9.7919744909 0.5082935865 1
-102.5560237169 121.3337837458 -9.8878215284 0.1672851918 1
-100.778247714 121.3337837458 -10.4026662495 0.4494121316 1
-99.0004717112 121.3337837458 -10.369376462 0.5239404167 1
-97.2226957083 121.3337837458 -10.0941328673 -0.1088791416 1
-95.4449197054 121.3337837458 -9.8048991993 -0.1348688888 1
-93.6671437025 121.3337837458 -10.0445876742 0.3880147546 1
-91.8893676996 121.3337837458 -10.0918560795 0.4673472051 1
-90.1115916967 121.3337837458 -10.0602101614 0.342606442 1
-88.3338156939 121.3337837458 0 -0 0
-86.556039691 121.3337837458 -9.9752644983 0.577009619 1
-84.7782636881 121.3337837458 -9.6099904145 0.308587796 1
-83.0004876852 121.3337837458 -9.4961882563 -0.0273959143 1
-81.2227116823 121.3337837458 -9.8399989615 0.0151857449 1
-79.4449356794 121.3337837458 -10.2606920644 0.3319986157 1
-77.6671596766 121.3337837458 -9.8496631381 0.4791464071 1
-75.8893836737 121.3337837458 -9.8503834049 0.4691714992 1
-74.1116076708 121.3337837458 -10.0484353024 0.5990958923 1
-72.3338316679 121.3337837458 -10.1563865456 0.2176122251 1
-70.556055665 121.3337837458 0 -0 0
-68.7782796621 121.3337837458 0 -0 0
-67.0005036592 121.3337837458 0 -0 0
-65.2227276564 121.3337837458 0 -0 0
-63.4449516535 121.3337837458 0 -0 0
-61.6671756506 121.3337837458 -10.4250475029 0.3506410685 1
-59.8893996477 121.3337837458 -9.8056395133 0.6950746685 1
-58.1116236448 121.3337837458 -9.5550840306 0.197149774 1
-56.3338476419 121.3337837458 0 -0 0
-54.5560716391 121.3337837458 -9.8197326865 -0.0239563896 1
-52.7782956362 121.3337837458 -9.6573017781 0.5488605032 1
-51.0005196333 121.3337837458 -9.6436324598 0.0096842237 1
-49.2227436304 121.3337837458 -9.8560266883 -0.5998233189 1
-47.4449676275 121.3337837458 -9.483852076 -0.4941717745 1
-45.6671916246 121.3337837458 -9.4054732989 0.2935495411 1
-43.8894156218 121.3337837458 -9.7858715541 0.4195876437 1
-42.1116396189 121.3337837458 -9.3980100173 0.550766418 1
-40.333863616 121.3337837458 -9.9365433548 0.3416642242 1
-38.5560876131 121.3337837458 -10.1640374117 -0.12852109 1
-36.7783116102 121.3337837458 -9.7873407266 -0.5463073506 1
-35.0005356073 121.3337837458 -9.977962277 0.7585540891 1
-33.2227596045 121.3337837458 -9.8603941114 0.9392021636 1
-31.4449836016 121.3337837458 -9.177708605 0.4203265258 1
-29.6672075987 121.3337837458 -10.177755416 0.3123967617 1
-27.8894315958 121.3337837458 -10.8059669849 0.1708793662 1
-26.1116555929 121.3337837458 -10.8384262461 -0.0061673742 1
-24.33387959 121.3337837458 -9.4445252211 -0.0302325914 1
-22.5561035872 121.3337837458 -9.7870070841 0.1189814924 1
-20.7783275843 121.3337837458 -9.8424418546 0.8253470235 1
-19.0005515814 121.3337837458 -10.1891722895 0.9118649589 1
-17.2227755785 121.3337837458 -9.9247785194 0.4620132212 1
-15.4449995756 121.3337837458 -9.7743000308 0.1653721172 1
-13.6672235727 121.3337837458 -10.2866474451 0.0563812842 1
-11.8894475698 121.3337837458 -10.2437665101 0.1399708982 1
-10.111671567 121.3337837458 -9.6255198255 0.2766569214 1
-8.3338955641 121.3337837458 -9.3795451252 0.302095371 1
-6.5561195612 121.3337837458 -9.7929210045 -0.1557609226 1
-4.7783435583 121.3337837458 -10.4503255749 -0.276396308 1
-3.0005675554 121.3337837458 -10.2651912262 -0.3198113573 1
-1.2227915525 121.3337837458 -9.9386339901 -0.0198023259 1
0.5549844503 121.3337837458 -9.577144529 0.5415747823 1
2.3327604532 121.3337837458 -9.602349572 0.6083648529 1
4.1105364561 121.3337837458 -9.7637838488 0.1628862659 1
5.888312459 121.3337837458 -9.9990132563 0.2879119855 1
7.6660884619 121.3337837458 -9.5915885279 0.2377625129 1
9.4438644648 121.3337837458 -9.3402340216 0.4192425457 1
11.2216404676 121.3337837458 -9.6305774446 0.3312797808 1
12.9994164705 121.3337837458 -9.3906927937 0.7214796789 1
14.7771924734 121.3337837458 0 -0 0
16.5549684763 121.3337837458 0 -0 0
18.3327444792 121.3337837458 0 -0 0
20.1105204821 121.3337837458 0 -0 0
21.8882964849 121.3337837458 0 -0 0
23.6660724878 121.3337837458 0 -0 0
25.4438484907 121.3337837458 0 -0 0
27.2216244936 121.3337837458 0 -0 0
28.9994004965 121.3337837458 0 -0 0
30.7771764994 121.3337837458 0 -0 0
32.5549525023 121.3337837458 0 -0 0
34.3327285051 121.3337837458 0 -0 0
36.110504508 121.3337837458 -10.5817420516 -0.1225312766 1
37.8882805109 121.3337837458 -10.2114361237 0.2450983518 1
39.6660565138 121.3337837458 -9.7168748609 0.4537638033 1
41.4438325167 121.3337837458 -9.232589214 -0.9447323236 1
43.2216085196 121.3337837458 -9.6274644027 -0.3265744194 1
44.9993845224 121.3337837458 -9.430578106 0.1351524134 1
46.7771605253 121.3337837458 -9.7182910516 0.2806105133 1
48.5549365282 121.3337837458 -10.0883664369 0.2747753496 1
50.3327125311 121.3337837458 -10.0281489801 0.3850377472 1
52.110488534 121.3337837458 -9.8652884891 0.138591938 1
53.8882645369 121.3337837458 0 -0 0
-125.6671117544 119.5560077429 0 -0 0
-123.8893357515 119.5560077429 -9.8876955175 0.4823310461 1
-122.1115597486 119.5560077429 -9.7527836704 0.4921283933 1
-120.3337837458 119.5560077429 -9.7600894384 0.5475660277 1
-118.5560077429 119.5560077429 -9.6063561457 0.3770919011 1
-116.77823174 119.5560077429 -9.6339267569 0.1523815395 1
-115.0004557371 119.5560077429 -9.6782711367 0.1510670167 1
-113.2226797342 119.5560077429 -9.8690272897 0.3050351479 1
-111.4449037313 119.5560077429 -10.0973275299 0.3220351633 1
-109.6671277285 119.5560077429 -10.2828012489 0.1973874764 1
-107.8893517256 119.5560077429 -10.0370943218 0.1826785682 1
-106.1115757227 119.5560077429 -9.9706078229 0.6192089496 1
-104.3337997198 119.5560077429 -9.9941561091 0.4489882768 1
-102.5560237169 119.5560077429 -10.0256130108 0.1385360923 1
-100.778247714 119.5560077429 -9.9239680402 0.4316188203 1
-99.0004717112 119.5560077429 -10.0730675686 0.4033637409 1
-97.2226957083 119.5560077429 -10.0409061514 0.0685570869 1
-95.4449197054 119.5560077429 -9.6241422973 0.2245471202 1
-93.6671437025 119.5560077429 -9.4232394033 0.5351711377 1
-91.8893676996 119.5560077429 -9.4190724521 0.5924975036 1
-90.1115916967 119.5560077429 -9.6540340864 0.1227503637 1
-88.3338156939 119.5560077429 -9.7730427857 0.0081205431 1
-86.556039691 119.5560077429 -9.5412958611 0.2655980334 1
-84.7782636881 119.5560077429 -9.6553371537 0.106993274 1
-83.0004876852 119.5560077429 -10.0764240406 -0.0769325157 1
-81.2227116823 119.5560077429 -10.4683050386 0.0311962883 1
-79.4449356794 119.5560077429 -10.2513686901 0.319426165 1
-77.6671596766 119.5560077429 -10.2229589609 0.2477374209 1
-75.8893836737 119.5560077429 -9.9850174552 0.1043484771 1
-74.1116076708 119.5560077429 -9.6562722118 0.406817585 1
-72.3338316679 119.5560077429 -10.0442139374 0.4104590135 1
-70.556055665 119.5560077429 0 -0 0
-68.7782796621 119.5560077429 0 -0 0
-67.0005036592 119.5560077429 0 -0 0
-65.2227276564 119.5560077429 0 -0 0
-63.4449516535 119.5560077429 0 -0 0
-61.6671756506 119.5560077429 -9.2267497545 0.606486145 1
-59.8893996477 119.5560077429 -9.5206701686 0.4717346754 1
-58.1116236448 119.5560077429 -9.1642512142 0.2106801939 1
-56.3338476419 119.5560077429 -9.5266385029 -0.339817019 1
-54.5560716391 119.5560077429 -9.7735568529 -0.0629410104 1
-52.7782956362 119.5560077429 -9.8912424378 0.5568536034 1
-51.0005196333 119.5560077429 -10.2765665734 0.3952918838 1
-49.2227436304 119.5560077429 -9.8701112698 -0.4168268595 1
-47.4449676275 119.5560077429 -9.9294924724 -0.2502991651 1
-45.6671916246 119.5560077429 -9.9230387098 0.6338419649 1
-43.8894156218 119.5560077429 -9.8794389399 0.5273899649 1
-42.1116396189 119.5560077429 -9.8871313323 0.6541153996 1
-40.333863616 119.5560077429 -9.9046740537 0.2642605996 1
-38.5560876131 119.5560077429 -9.8210629606 -0.3271142615 1
-36.7783116102 119.5560077429 -9.697124085 -0.1797173122 1
-35.0005356073 119.5560077429 -9.7127737791 1.1285822203 1
-33.2227596045 119.5560077429 -10.0183573607 1.0079582905 1
-31.4449836016 119.5560077429 -9.7927520354 0.3474779087 1
-29.6672075987 119.5560077429 -9.858526859 0.6209258481 1
-27.8894315958 119.5560077429 -10.3731009431 0.1034678328 1
-26.1116555929 119.5560077429 -10.1458431567 -0.3836058052 1
-24.33387959 119.5560077429 0 -0 0
-22.5561035872 119.5560077429 0 -0 0
-20.7783275843 119.5560077429 -9.5320584033 0.3972321653 1
-19.0005515814 119.5560077429 -10.0401343346 0.4596791557 1
-17.2227755785 119.5560077429 -9.7725301505 0.5062043831 1
-15.4449995756 119.5560077429 -9.4919081817 -0.2212092634 1
-13.6672235727 119.5560077429 -10.4528071304 -0.0506664036 1
-11.8894475698 119.5560077429 -10.5567288888 0.43345457 1
-10.111671567 119.5560077429 -10.1979887564 0.3854931048 1
-8.3338955641 119.5560077429 -9.6577413843 0.2720875945 1
-6.5561195612 119.5560077429 -9.6499874184 0.3014910915 1
-4.7783435583 119.5560077429 -9.936069382 0.3711593654 1
-3.0005675554 119.5560077429 -10.058318566 0.202926228 1
-1.2227915525 119.5560077429 -9.9570802669 0.0144726378 1
0.5549844503 119.5560077429 -9.6883906708 0.2832295352 1
2.3327604532 119.5560077429 -9.404138729 0.2487669872 1
4.1105364561 119.5560077429 -9.3770048601 -0.0263835313 1
5.888312459 119.5560077429 -9.6093245615 0.5363610815 1
7.6660884619 119.5560077429 -9.7294072173 1.0125920548 1
9.4438644648 119.5560077429 -9.8726859015 0.5694131667 1
11.2216404676 119.5560077429 -9.8444895316 0.2220712925 1
12.9994164705 119.5560077429 -9.1575081993 0.7212133377 1
14.7771924734 119.5560077429 0 -0 0
16.5549684763 119.5560077429 0 -0 0
18.3327444792 119.5560077429 0 -0 0
20.1105204821 119.5560077429 0 -0 0
21.8882964849 119.5560077429 0 -0 0
23.6660724878 119.5560077429 0 -0 0
25.4438484907 119.5560077429 0 -0 0
27.2216244936 119.5560077429 0 -0 0
28.9994004965 119.5560077429 0 -0 0
30.7771764994 119.5560077429 0 -0 0
32.5549525023 119.5560077429 0 -0 0
34.3327285051 119.5560077429 0 -0 0
36.110504508 119.5560077429 -10.225128353 0.6380432827 1
37.8882805109 119.5560077429 -9.9779522534 0.1459535518 1
39.6660565138 119.5560077429 -9.8111181234 -0.1540039297 1
41.4438325167 119.5560077429 -9.2522712567 0.6287113167 1
43.2216085196 119.5560077429 -8.8278636963 0.0050146609 1
44.9993845224 119.5560077429 -9.2307205297 -0.1011552465 1
46.7771605253 119.5560077429 -9.377477401 -0.1653893005 1
48.5549365282 119.5560077429 -9.6392435576 0.1189399661 1
50.3327125311 119.5560077429 -9.9634767518 0.534078566 1
52.110488534 119.5560077429 -9.9084371973 0.7506368818 1
53.8882645369 119.5560077429 0 -0 0
-125.6671117544 117.77823174 0 -0 0
-123.8893357515 117.77823174 -9.5671309586 0.5450701528 1
-122.1115597486 117.77823174 -9.4908428169 0.3044122531 1
-120.3337837458 117.77823174 -9.7769791943 0.4132455726 1
-118.5560077429 117.77823174 -9.5825916364 0.5557166415 1
-116.77823174 117.77823174 -9.3347367963 0.3679188806 1
-115.0004557371 117.77823174 -9.3999044765 0.1668398578 1
-113.2226797342 117.77823174 -9.6735142254 0.2561801509 1
-111.4449037313 117.77823174 -10.0766431277 0.2848333102 1
-109.6671277285 117.77823174 -10.0437514201 0.1790357078 1
-107.8893517256 117.77823174 -9.9922416026 0.2238955866 1
-106.1115757227 117.77823174 -9.9162240979 0.5455799241 1
-104.3337997198 117.77823174 -10.0351726556 0.2428373153 1
-102.5560237169 117.77823174 -9.9036774221 0.1195929316 1
-100.778247714 117.77823174 -9.5100379993 0.3419806833 1
-99.0004717112 117.77823174 -9.7596584239 0.316314555 1
-97.2226957083 117.77823174 -9.9910788657 0.2028660865 1
-95.4449197054 117.77823174 -9.5925865915 0.3472946201 1
-93.6671437025 117.77823174 -9.1682019421 0.546915926 1
-91.8893676996 117.77823174 -9.545989767 0.3654373252 1
-90.1115916967 117.77823174 -9.6859191389 -0.1939236087 1
-88.3338156939 117.77823174 -9.2863271332 -0.3191741432 1
-86.556039691 117.77823174 -9.3158108189 0.1398148165 1
-84.7782636881 117.77823174 -9.6847120118 0.2658242802 1
-83.0004876852 117.77823174 -10.0290267606 0.1834260419 1
-81.2227116823 117.77823174 -10.0462845255 0.2515521143 1
-79.4449356794 117.77823174 -9.8663638776 0.4384763906 1
-77.6671596766 117.77823174 -9.7986545003 0.2843378583 1
-75.8893836737 117.77823174 -9.7195067703 -0.0013732324 1
-74.1116076708 117.77823174 -9.5785234892 0.1038902557 1
-72.3338316679 117.77823174 -9.919922804 0.5390703158 1
-70.556055665 117.77823174 0 -0 0
-68.7782796621 117.77823174 0 -0 0
-67.0005036592 117.77823174 0 -0 0
-65.2227276564 117.77823174 0 -0 0
-63.4449516535 117.77823174 0 -0 0
-61.6671756506 117.77823174 0 -0 0
-59.8893996477 117.77823174 -9.3663726908 0.2257972056 1
-58.1116236448 117.77823174 -9.2770295338 0.2033672662 1
-56.3338476419 117.77823174 -9.6617794607 0.0782155357 1
-54.5560716391 117.77823174 -9.9870823156 0.1585546414 1
-52.7782956362 117.77823174 -10.1345308149 0.2734379158 1
-51.0005196333 117.77823174 -10.0199539761 -0.0124865342 1
-49.2227436304 117.77823174 -9.7111728679 -0.0655528726 1
-47.4449676275 117.77823174 -10.1478736504 0.0277896983 1
-45.6671916246 117.77823174 0 -0 0
-43.8894156218 117.77823174 -9.5812527706 -0.069148479 1
-42.1116396189 117.77823174 -9.7820067426 0.4037718443 1
-40.333863616 117.77823174 -9.7312544225 0.2446086276 1
-38.5560876131 117.77823174 -9.4825232339 -0.1586691968 1
-36.7783116102 117.77823174 -9.7238870809 0.1667453496 1
-35.0005356073 117.77823174 -9.8838034991 0.6622402385 1
-33.2227596045 117.77823174 -9.7587863712 -0.4227908979 1
-31.4449836016 117.77823174 -9.743460296 -0.1792261561 1
-29.6672075987 117.77823174 -8.8364582121 0.0569626526 1
-27.8894315958 117.77823174 -8.6834666654 0.051743224 1
-26.1116555929 117.77823174 0 -0 0
-24.33387959 117.77823174 -10.0012413581 -0.1859262127 1
-22.5561035872 117.77823174 -9.9414577797 0.3963200182 1
-20.7783275843 117.77823174 -9.8920257101 0.1135873669 1
-19.0005515814 117.77823174 -9.9269035213 0.0641982555 1
-17.2227755785 117.77823174 -9.7299900177 0.6749329724 1
-15.4449995756 117.77823174 -9.8471529437 0.0983200013 1
-13.6672235727 117.77823174 -10.1340239074 -0.0909598195 1
-11.8894475698 117.77823174 -10.0708580821 0.6507274249 1
-10.111671567 117.77823174 -9.9273631747 0.4285387131 1
-8.3338955641 117.77823174 -10.2024005697 0.2434258435 1
-6.5561195612 117.77823174 -10.4254513105 0.5632014023 1
-4.7783435583 117.77823174 -10.0249901161 0.8043805288 1
-3.0005675554 117.77823174 -10.3024546528 0.6482286861 1
-1.2227915525 117.77823174 -10.2140322345 0.2752378669 1
0.5549844503 117.77823174 -9.5260313595 -0.031549978 1
2.3327604532 117.77823174 -9.3124801218 0.1790886896 1