TITLE = "B00008"
VARIABLES = "x", "y", "Vx", "Vy", "isValid"
ZONE T="Frame 0", I=51, J=39, F=POINT
-124.778223753 125.778223753 -10.2059388983 -0.0540414909 1
-121.2226717472 125.778223753 -9.8209713163 -0.4167323514 1
-117.6671197414 125.778223753 -9.9743251444 -0.1652489702 1
-114.1115677357 125.778223753 -9.9803808271 -0.177523577 1
-110.5560157299 125.778223753 -10.1887026125 -0.6782736931 1
-107.0004637241 125.778223753 -10.3551458224 -0.294490327 1
-103.4449117184 125.778223753 -10.810703849 -0.3451295238 1
-99.8893597126 125.778223753 -10.8330106414 -0.1326264677 1
-96.3338077068 125.778223753 -10.6351141097 -0.0659695678 1
-92.7782557011 125.778223753 -10.5955373808 -0.0280803825 1
-89.2227036953 125.778223753 -11.2395561574 -0.498553517 1
-85.6671516895 125.778223753 -11.2109259092 0.0860067321 1
-82.1115996838 125.778223753 -10.2176507519 0.4133515363 1
-78.556047678 125.778223753 -10.4875460432 0.1995239339 1
-75.0004956722 125.778223753 -10.4124378217 -0.0818712836 1
-71.4449436665 125.778223753 -10.2339620032 0.6975447684 1
-67.8893916607 125.778223753 0 -0 0
-64.3338396549 125.778223753 0 -0 0
-60.7782876492 125.778223753 0 -0 0
-57.2227356434 125.778223753 -10.8901093285 0.5951981462 1
-53.6671836376 125.778223753 -10.2992914929 0.9281260922 1
-50.1116316319 125.778223753 -10.7020108599 0.6069916205 1
-46.5560796261 125.778223753 -9.7686051975 0.7082342154 1
-43.0005276203 125.778223753 -10.4867942737 0.2576607789 1
-39.4449756145 125.778223753 0 -0 0
-35.8894236088 125.778223753 -10.1028405066 1.085709877 1
-32.333871603 125.778223753 -10.2272791299 0.5505630823 1
-28.7783195972 125.778223753 0 -0 0
-25.2227675915 125.778223753 0 -0 0
-21.6672155857 125.778223753 -9.8914744124 0.8562655151 1
-18.1116635799 125.778223753 -9.724773453 0.6503164575 1
-14.5561115742 125.778223753 -9.8023131121 1.2513526313 1
-11.0005595684 125.778223753 -10.023659842 0.6080541215 1
-7.4450075626 125.778223753 -10.4862572954 1.0088704375 1
-3.8894555569 125.778223753 -10.58084494 1.1277774689 1
-0.3339035511 125.778223753 -9.9517033247 0.9625027237 1
3.2216484547 125.778223753 -9.5073860427 0.507195287 1
6.7772004604 125.778223753 -10.0752598718 1.0742314299 1
10.3327524662 125.778223753 0 -0 0
13.888304472 125.778223753 0 -0 0
17.4438564777 125.778223753 0 -0 0
20.9994084835 125.778223753 0 -0 0
24.5549604893 125.778223753 0 -0 0
28.110512495 125.778223753 0 -0 0
31.6660645008 125.778223753 0 -0 0
35.2216165066 125.778223753 0 -0 0
38.7771685123 125.778223753 0 -0 0
42.3327205181 125.778223753 -9.3375204915 0.9004065591 1
45.8882725239 125.778223753 -9.7072378913 0.5926951116 1
49.4438245296 125.778223753 -9.3065475861 0.3901941703 1
52.9993765354 125.778223753 0 -0 0
-124.778223753 122.2226717472 -10.1933120338 0.2397944386 1
-121.2226717472 122.2226717472 -10.287833093 -0.4996374971 1
-117.6671197414 122.2226717472 -9.9614935121 0.0145141641 1
-114.1115677357 122.2226717472 -10.431807701 0.1964151878 1
-110.5560157299 122.2226717472 -10.043804402 -0.3728390333 1
-107.0004637241 122.2226717472 -10.3631876086 -0.1484594503 1
-103.4449117184 122.2226717472 -10.9272345727 -0.3479819522 1
-99.8893597126 122.2226717472 -10.4157914298 -0.2425652464 1
-96.3338077068 122.2226717472 -10.7857343605 0.319795606 1
-92.7782557011 122.2226717472 -10.8982069605 -0.4145701189 1
-89.2227036953 122.2226717472 -10.6055602588 0.1884879569 1
-85.6671516895 122.2226717472 -10.8734615709 0.0223683659 1
-82.1115996838 122.2226717472 -10.9937754853 0.3648573887 1
-78.556047678 122.2226717472 -10.9294970411 0.1309324803 1
-75.0004956722 122.2226717472 -10.8952850829 -0.0888562967 1
-71.4449436665 122.2226717472 -10.5736000294 0.0577416291 1
-67.8893916607 122.2226717472 0 -0 0
-64.3338396549 122.2226717472 0 -0 0
-60.7782876492 122.2226717472 0 -0 0
-57.2227356434 122.2226717472 -10.2516579424 0.4185723968 1
-53.6671836376 122.2226717472 -11.0417527019 0.3295857934 1
-50.1116316319 122.2226717472 -10.1443381856 0.710047054 1
-46.5560796261 122.2226717472 -10.1768633161 0.508551336 1
-43.0005276203 122.2226717472 -10.6776850292 0.6660964583 1
-39.4449756145 122.2226717472 -10.2885648154 1.3043187337 1
-35.8894236088 122.2226717472 -10.3669221134 0.9945467217 1
-32.333871603 122.2226717472 -10.2530769969 0.40047265 1
-28.7783195972 122.2226717472 -10.0396460424 1.8084525287 1
-25.2227675915 122.2226717472 -10.1124688845 1.2551329581 1
-21.6672155857 122.2226717472 -10.144846525 1.1192387988 1
-18.1116635799 122.2226717472 -10.033508739 1.0142874741 1
-14.5561115742 122.2226717472 -9.9569112977 1.0022018836 1
-11.0005595684 122.2226717472 -10.2201051005 0.9625872083 1
-7.4450075626 122.2226717472 0 -0 0
-3.8894555569 122.2226717472 -9.5054500572 0.836098044 1
-0.3339035511 122.2226717472 -10.1002501235 1.0375321885 1
3.2216484547 122.2226717472 -9.4191025229 0.5889033292 1
6.7772004604 122.2226717472 -10.1119175869 0.6536600421 1
10.3327524662 122.2226717472 0 -0 0
13.888304472 122.2226717472 0 -0 0
17.4438564777 122.2226717472 0 -0 0
20.9994084835 122.2226717472 0 -0 0
24.5549604893 122.2226717472 0 -0 0
28.110512495 122.2226717472 0 -0 0
31.6660645008 122.2226717472 0 -0 0
35.2216165066 122.2226717472 0 -0 0
38.7771685123 122.2226717472 -8.9118198874 0.4426734126 1
42.3327205181 122.2226717472 -9.5851992027 0.8492661826 1
45.8882725239 122.2226717472 -8.8299829704 0.9376298913 1
49.4438245296 122.2226717472 -9.7790898768 0.6417677638 1
52.9993765354 122.2226717472 0 -0 0
-124.778223753 118.6671197414 -9.7013554736 -0.3158792446 1
-121.2226717472 118.6671197414 -10.2049164918 -0.3054303639 1
-117.6671197414 118.6671197414 -10.068786062 -0.5268930811 1
-114.1115677357 118.6671197414 -10.3870337387 -0.1892483181 1
-110.5560157299 118.6671197414 -10.4593797442 -0.2074755078 1
-107.0004637241 118.6671197414 -10.1794236284 0.2001883549 1
-103.4449117184 118.6671197414 -10.7994738439 -0.2092482519 1
-99.8893597126 118.6671197414 -10.596544036 -0.0696009727 1
-96.3338077068 118.6671197414 -10.7789648547 0.4284055425 1
-92.7782557011 118.6671197414 -11.2629533737 -0.4276365897 1
-89.2227036953 118.6671197414 -10.1644942012 0.2745476709 1
-85.6671516895 118.6671197414 -10.9868799686 -0.0887918593 1
-82.1115996838 118.6671197414 -10.6651354896 -0.2987145559 1
-78.556047678 118.6671197414 -10.7734862446 0.5658089687 1
-75.0004956722 118.6671197414 -10.7156164567 0.3149713934 1
-71.4449436665 118.6671197414 -11.1086351327 0.6581219733 1
-67.8893916607 118.6671197414 0 -0 0
-64.3338396549 118.6671197414 0 -0 0
-60.7782876492 118.6671197414 0 -0 0
-57.2227356434 118.6671197414 -10.0552642337 0.602486731 1
-53.6671836376 118.6671197414 -10.9241029156 0.7246199277 1
-50.1116316319 118.6671197414 -11.077744564 0.2979069406 1
-46.5560796261 118.6671197414 -10.9646977552 0.5787880909 1
-43.0005276203 118.6671197414 -10.6345277294 0.5494318481 1
-39.4449756145 118.6671197414 -10.215574436 0.9449700259 1
-35.8894236088 118.6671197414 -10.059381067 1.1793245169 1
-32.333871603 118.6671197414 -10.5133417623 1.2228483939 1
-28.7783195972 118.6671197414 -10.2822528151 1.1235961983 1
-25.2227675915 118.6671197414 -10.3311908647 0.649884011 1
-21.6672155857 118.6671197414 -10.3654185743 1.2175516404 1
-18.1116635799 118.6671197414 0 -0 0
-14.5561115742 118.6671197414 -10.1003646789 1.0674669359 1
-11.0005595684 118.6671197414 -10.029757051 1.0759025062 1
-7.4450075626 118.6671197414 -9.4153336515 0.7896401179 1
-3.8894555569 118.6671197414 -9.2900315672 0.460536889 1
-0.3339035511 118.6671197414 0 -0 0
3.2216484547 118.6671197414 -10.0942488546 1.3995629237 1
6.7772004604 118.6671197414 -10.0067801097 0.8944568401 1
10.3327524662 118.6671197414 -9.8460303012 0.4104232149 1
13.888304472 118.6671197414 0 -0 0
17.4438564777 118.6671197414 0 -0 0
20.9994084835 118.6671197414 0 -0 0
24.5549604893 118.6671197414 0 -0 0
28.110512495 118.6671197414 0 -0 0
31.6660645008 118.6671197414 0 -0 0
35.2216165066 118.6671197414 0 -0 0
38.7771685123 118.6671197414 -9.1222093972 0.061173994 1
42.3327205181 118.6671197414 -9.7543659663 0.5180350879 1
45.8882725239 118.6671197414 -9.5797964856 0.8156513443 1
49.4438245296 118.6671197414 -9.0941161271 -0.0280102174 1
52.9993765354 118.6671197414 0 -0 0
-124.778223753 115.1115677357 0 -0 0
-121.2226717472 115.1115677357 -10.3639837684 -0.4182630973 1
-117.6671197414 115.1115677357 -10.2133434704 -0.8677167553 1
-114.1115677357 115.1115677357 -10.6948303867 -0.6520448115 1
-110.5560157299 115.1115677357 -10.6604372879 -0.457498308 1
-107.0004637241 115.1115677357 -10.3304462549 -0.8295354539 1
-103.4449117184 115.1115677357 -11.008152183 -0.2109307838 1
-99.8893597126 115.1115677357 -10.9476798405 -0.2597199115 1
-96.3338077068 115.1115677357 -10.8779127626 -0.1890206393 1
-92.7782557011 115.1115677357 -10.4355565252 -0.3394246669 1
-89.2227036953 115.1115677357 -10.4644473869 -0.0888605925 1
-85.6671516895 115.1115677357 -10.5760407746 -0.0514654273 1
-82.1115996838 115.1115677357 -10.6720116751 -0.0086374741 1
-78.556047678 115.1115677357 -11.2135005409 -0.2117255116 1
-75.0004956722 115.1115677357 -10.8728086053 -0.0918504874 1
-71.4449436665 115.1115677357 -10.9790780327 0.5031428911 1
-67.8893916607 115.1115677357 0 -0 0
-64.3338396549 115.1115677357 0 -0 0
-60.7782876492 115.1115677357 -10.5281065162 0.6377568943 1
-57.2227356434 115.1115677357 -11.0736513578 -0.2874351488 1
-53.6671836376 115.1115677357 -10.5538556972 0.7494669852 1
-50.1116316319 115.1115677357 -11.6301190528 0.2854118148 1
-46.5560796261 115.1115677357 -10.6039435963 0.9356409238 1
-43.0005276203 115.1115677357 -9.6882703876 0.435280296 1
-39.4449756145 115.1115677357 -10.6968444132 0.955262825 1
-35.8894236088 115.1115677357 -10.3334934275 0.9174022786 1
-32.333871603 115.1115677357 -10.0705115521 1.2132271756 1
-28.7783195972 115.1115677357 -10.3798826204 0.9637241703 1
-25.2227675915 115.1115677357 0 -0 0
-21.6672155857 115.1115677357 -10.7071816024 1.5234244744 1
-18.1116635799 115.1115677357 -9.9959374449 0.9102440006 1
-14.5561115742 115.1115677357 -10.6079931283 0.7743040191 1
-11.0005595684 115.1115677357 0 -0 0
-7.4450075626 115.1115677357 -9.7121107899 1.0448293649 1
-3.8894555569 115.1115677357 -9.9955536845 -0.0201574475 1
-0.3339035511 115.1115677357 -9.6190288324 1.0556219117 1
3.2216484547 115.1115677357 -9.8776533083 0.6835432396 1
6.7772004604 115.1115677357 -9.6651645716 0.9370356353 1
10.3327524662 115.1115677357 -9.5609120346 0.959558651 1
13.888304472 115.1115677357 0 -0 0
17.4438564777 115.1115677357 0 -0 0
20.9994084835 115.1115677357 0 -0 0
24.5549604893 115.1115677357 0 -0 0
28.110512495 115.1115677357 0 -0 0
31.6660645008 115.1115677357 0 -0 0
35.2216165066 115.1115677357 -9.6965885387 0.6174562526 1
38.7771685123 115.1115677357 -10.1266393825 0.4792366195 1
42.3327205181 115.1115677357 -8.6289526336 0.5196488865 1
45.8882725239 115.1115677357 -9.6564583642 0.4876048885 1
49.4438245296 115.1115677357 -9.3702059995 0.8235284572 1
52.9993765354 115.1115677357 0 -0 0
-124.778223753 111.5560157299 -10.5899893215 -0.9557597089 1
-121.2226717472 111.5560157299 -9.8266632857 -0.3914514154 1
-117.6671197414 111.5560157299 -10.307757134 -0.7600504685 1
-114.1115677357 111.5560157299 -10.583337235 -0.1417264591 1
-110.5560157299 111.5560157299 -10.7112289865 -0.8364961239 1
-107.0004637241 111.5560157299 -10.6878947757 -0.6550347064 1
-103.4449117184 111.5560157299 -10.8411483678 -0.6032427963 1
-99.8893597126 111.5560157299 -11.0196657126 -0.2047634096 1
-96.3338077068 111.5560157299 -10.6517819145 -0.538769608 1
-92.7782557011 111.5560157299 -10.8219975756 -0.2729510555 1
-89.2227036953 111.5560157299 -10.7995003349 0.033919842 1
-85.6671516895 111.5560157299 -11.5503040379 0.3350371966 1
-82.1115996838 111.5560157299 -10.917401427 0.2902861453 1
-78.556047678 111.5560157299 -11.3779791263 0.8014407519 1
-75.0004956722 111.5560157299 -11.3372453883 0.0065139041 1
-71.4449436665 111.5560157299 -11.4231969907 0.5698914353 1
-67.8893916607 111.5560157299 0 -0 0
-64.3338396549 111.5560157299 0 -0 0
-60.7782876492 111.5560157299 -10.713956836 0.5771642687 1
-57.2227356434 111.5560157299 -11.3022043357 0.4757226338 1
-53.6671836376 111.5560157299 -10.7949174045 1.091954576 1
-50.1116316319 111.5560157299 -11.5492673119 0.9359931816 1
-46.5560796261 111.5560157299 -10.9083007197 0.7314689063 1
-43.0005276203 111.5560157299 -10.254382928 0.3262493686 1
-39.4449756145 111.5560157299 -10.7543590794 0.8863663678 1
-35.8894236088 111.5560157299 -10.7821208548 1.1250066612 1
-32.333871603 111.5560157299 -10.5060768046 1.2556570489 1
-28.7783195972 111.5560157299 -9.7813179785 0.5941972188 1
-25.2227675915 111.5560157299 -10.8890267804 0.9875459573 1
-21.6672155857 111.5560157299 -9.9630085068 0.9885440209 1
-18.1116635799 111.5560157299 -10.1922796036 1.3462202204 1
-14.5561115742 111.5560157299 -9.4292793346 1.9975247179 1
-11.0005595684 111.5560157299 -9.9265498316 1.3845747868 1
-7.4450075626 111.5560157299 -10.213576877 1.4944706072 1
-3.8894555569 111.5560157299 -9.8864096336 1.0459591672 1
-0.3339035511 111.5560157299 -9.876894379 1.5485793994 1
3.2216484547 111.5560157299 -10.0536905295 1.1970705741 1
6.7772004604 111.5560157299 -9.6859749846 1.6646812565 1
10.3327524662 111.5560157299 -9.421962111 0.2438224914 1
13.888304472 111.5560157299 0 -0 0
17.4438564777 111.5560157299 0 -0 0
20.9994084835 111.5560157299 0 -0 0
24.5549604893 111.5560157299 0 -0 0
28.110512495 111.5560157299 0 -0 0
31.6660645008 111.5560157299 0 -0 0
35.2216165066 111.5560157299 -9.7354070543 0.4629898056 1
38.7771685123 111.5560157299 -9.6084711241 0.7090676057 1
42.3327205181 111.5560157299 -8.9408911738 0.3703675015 1
45.8882725239 111.5560157299 -8.2779736268 0.1163954052 1
49.4438245296 111.5560157299 -8.7254955949 1.0827915792 1
52.9993765354 111.5560157299 0 -0 0
-124.778223753 108.0004637241 -9.9350126088 -0.64936708 1
-121.2226717472 108.0004637241 -10.0567362701 -0.7545775862 1
-117.6671197414 108.0004637241 -10.567908776 -0.9755176445 1
-114.1115677357 108.0004637241 -10.7005295159 -0.916209471 1
-110.5560157299 108.0004637241 -10.3779222918 -0.6595066613 1
-107.0004637241 108.0004637241 -11.0774932581 -0.7393245401 1
-103.4449117184 108.0004637241 -10.4494320431 -0.4822508574 1
-99.8893597126 108.0004637241 -10.8341404437 -0.7105697128 1
-96.3338077068 108.0004637241 -11.6691401882 0.3154181593 1
-92.7782557011 108.0004637241 -11.4507339512 0.2293842203 1
-89.2227036953 108.0004637241 -11.0297480162 -0.0790174232 1
-85.6671516895 108.0004637241 -11.5030485201 0.206136642 1
-82.1115996838 108.0004637241 -10.8533707087 0.237710963 1
-78.556047678 108.0004637241 -11.5958899114 0.4410137918 1
-75.0004956722 108.0004637241 -11.1627331853 0.3369130406 1
-71.4449436665 108.0004637241 -11.0293449245 0.3417601643 1
-67.8893916607 108.0004637241 0 -0 0
-64.3338396549 108.0004637241 0 -0 0
-60.7782876492 108.0004637241 -10.9997445355 0.7189694846 1
-57.2227356434 108.0004637241 -11.1590187278 0.3806960991 1
-53.6671836376 108.0004637241 -11.0259147074 0.6705526618 1
-50.1116316319 108.0004637241 -10.7489112561 0.9808673798 1
-46.5560796261 108.0004637241 -10.7736280069 1.3499389738 1
-43.0005276203 108.0004637241 -10.6631844686 0.7380343603 1
-39.4449756145 108.0004637241 0 -0 0
-35.8894236088 108.0004637241 -10.295585627 1.6981486048 1
-32.333871603 108.0004637241 -9.8024863771 1.0774704827 1
-28.7783195972 108.0004637241 -9.9874016387 0.7193246062 1
-25.2227675915 108.0004637241 -9.5885413554 1.8457760968 1
-21.6672155857 108.0004637241 -10.1560643586 1.267626652 1
-18.1116635799 108.0004637241 -9.9677110043 1.3844774147 1
-14.5561115742 108.0004637241 -9.4939759059 0.9228264749 1
-11.0005595684 108.0004637241 -9.9204368712 1.3273830235 1
-7.4450075626 108.0004637241 -9.7107962672 1.5554240822 1
-3.8894555569 108.0004637241 -9.9151558691 1.1377079867 1
-0.3339035511 108.0004637241 -9.7237539103 0.9548976798 1
3.2216484547 108.0004637241 -9.9394802678 0.7099138834 1
6.7772004604 108.0004637241 -9.2389269893 0.9704886643 1
10.3327524662 108.0004637241 -9.6242998109 1.0129643597 1
13.888304472 108.0004637241 0 -0 0
17.4438564777 108.0004637241 0 -0 0
20.9994084835 108.0004637241 0 -0 0
24.5549604893 108.0004637241 0 -0 0
28.110512495 108.0004637241 0 -0 0
31.6660645008 108.0004637241 0 -0 0
35.2216165066 108.0004637241 -8.7335631561 1.0584686124 1
38.7771685123 108.0004637241 -9.6231198907 0.5108438752 1
42.3327205181 108.0004637241 -9.496614975 1.3844673912 1
45.8882725239 108.0004637241 -9.3044197203 0.3411644764 1
49.4438245296 108.0004637241 -9.3022603518 0.8605341342 1
52.9993765354 108.0004637241 0 -0 0
-124.778223753 104.4449117184 -9.8423946005 -1.1534221181 1
-121.2226717472 104.4449117184 -9.8597755124 -1.1909189512 1
-117.6671197414 104.4449117184 -10.0168609814 -0.8862761555 1
-114.1115677357 104.4449117184 -10.2885189933 -1.1315177014 1
-110.5560157299 104.4449117184 -10.7757107665 -0.7983506211 1
-107.0004637241 104.4449117184 -10.8856330779 -0.3041587994 1
-103.4449117184 104.4449117184 -11.3338695851 -0.8813230681 1
-99.8893597126 104.4449117184 -11.0955808335 -0.6036566276 1
-96.3338077068 104.4449117184 -11.3308159688 -0.523586727 1
-92.7782557011 104.4449117184 -11.3361120062 -0.4534788469 1
-89.2227036953 104.4449117184 -11.1618360737 -0.0868616015 1
-85.6671516895 104.4449117184 -11.2374361673 -0.2079953027 1
-82.1115996838 104.4449117184 -11.3865263881 -0.0322086713 1
-78.556047678 104.4449117184 -11.1740641423 0.8054945797 1
-75.0004956722 104.4449117184 -11.3143085414 0.1492384268 1
-71.4449436665 104.4449117184 -10.9120796146 0.4900220066 1
-67.8893916607 104.4449117184 0 -0 0
-64.3338396549 104.4449117184 0 -0 0
-60.7782876492 104.4449117184 -11.323972718 0.7720429827 1
-57.2227356434 104.4449117184 -11.1267792697 1.1376593006 1
-53.6671836376 104.4449117184 -11.0133880789 0.7269926556 1
-50.1116316319 104.4449117184 -10.7995153702 1.3069520751 1
-46.5560796261 104.4449117184 -10.407836992 1.0293758469 1
-43.0005276203 104.4449117184 -10.8451391902 0.7014439465 1
-39.4449756145 104.4449117184 -11.1193346033 1.0431296498 1
-35.8894236088 104.4449117184 -10.7033618971 1.3310444992 1
-32.333871603 104.4449117184 -11.0890612016 1.4228964185 1
-28.7783195972 104.4449117184 -10.3466787494 0.9514194927 1
-25.2227675915 104.4449117184 -10.3058182845 1.1156532161 1
-21.6672155857 104.4449117184 -10.0930202484 1.798224167 1
-18.1116635799 104.4449117184 -10.2754024046 1.6449977818 1
-14.5561115742 104.4449117184 -10.0518318688 2.2565558653 1
-11.0005595684 104.4449117184 -10.7869686945 1.6614622509 1
-7.4450075626 104.4449117184 -9.6630968473 1.9377855298 1
-3.8894555569 104.4449117184 -9.5056490971 1.1331458195 1
-0.3339035511 104.4449117184 -10.0074030045 1.4861896867 1
3.2216484547 104.4449117184 -9.8612718918 1.0371427003 1
6.7772004604 104.4449117184 -10.0896780957 0.7703446995 1
10.3327524662 104.4449117184 -8.5949497389 0.6365096728 1
13.888304472 104.4449117184 0 -0 0
17.4438564777 104.4449117184 0 -0 0
20.9994084835 104.4449117184 0 -0 0
24.5549604893 104.4449117184 0 -0 0
28.110512495 104.4449117184 0 -0 0
31.6660645008 104.4449117184 0 -0 0
35.2216165066 104.4449117184 -8.6439822968 0.9462487501 1
38.7771685123 104.4449117184 -8.6107182842 0.0205082733 1
42.3327205181 104.4449117184 -9.3716952192 0.6515966137 1
45.8882725239 104.4449117184 -9.0942292505 0.2366269829 1
49.4438245296 104.4449117184 -8.7713807442 0.5065351617 1
52.9993765354 104.4449117184 0 -0 0
-124.778223753 100.8893597126 -9.6204665022 -1.2775829447 1
-121.2226717472 100.8893597126 -9.6839387631 -1.2432435437 1
-117.6671197414 100.8893597126 -10.1844755198 -1.2533988764 1
-114.1115677357 100.8893597126 -10.4262660855 -1.2584994538 1
-110.5560157299 100.8893597126 -11.0511333539 -1.4868956341 1
-107.0004637241 100.8893597126 -10.986450386 -1.0186448736 1
-103.4449117184 100.8893597126 -11.5808738516 -0.9657117058 1
-99.8893597126 100.8893597126 -11.1269102924 -0.5987765693 1
-96.3338077068 100.8893597126 -11.3624984014 -0.5921939319 1
-92.7782557011 100.8893597126 -11.2066751894 -0.8087679991 1
-89.2227036953 100.8893597126 -11.0967750731 0.0159890643 1
-85.6671516895 100.8893597126 -11.2249295859 0.4581999596 1
-82.1115996838 100.8893597126 -11.218089199 0.5361820888 1
-78.556047678 100.8893597126 -11.9114498329 0.3578007785 1
-75.0004956722 100.8893597126 -11.4307333014 -0.0145814653 1
-71.4449436665 100.8893597126 -11.2225224914 0.4410467264 1
-67.8893916607 100.8893597126 0 -0 0
-64.3338396549 100.8893597126 0 -0 0
-60.7782876492 100.8893597126 -10.7679360374 0.7724296071 1
-57.2227356434 100.8893597126 -11.0085030087 0.8342164723 1
-53.6671836376 100.8893597126 -11.3209334211 0.6877674685 1
-50.1116316319 100.8893597126 -10.9074701933 0.8133344621 1
-46.5560796261 100.8893597126 -10.7462141933 0.5927509573 1
-43.0005276203 100.8893597126 -10.7818430581 1.4555146252 1
-39.4449756145 100.8893597126 -10.1496836251 1.0541742184 1
-35.8894236088 100.8893597126 0 -0 0
-32.333871603 100.8893597126 -10.6802983234 1.0427659365 1
-28.7783195972 100.8893597126 -10.6767055809 0.8090386361 1
-25.2227675915 100.8893597126 -10.6981975983 1.9381549708 1
-21.6672155857 100.8893597126 0 -0 0
-18.1116635799 100.8893597126 -10.6735946869 1.2865454697 1
-14.5561115742 100.8893597126 -9.8986885362 1.6607849423 1
-11.0005595684 100.8893597126 -9.6913562226 0.8286619693 1
-7.4450075626 100.8893597126 -9.6949217582 2.0357274984 1
-3.8894555569 100.8893597126 -8.9918625811 1.0723255151 1
-0.3339035511 100.8893597126 -9.3866962435 1.5849449984 1
3.2216484547 100.8893597126 -9.6529615619 1.4502393509 1
6.7772004604 100.8893597126 0 -0 0
10.3327524662 100.8893597126 -9.3422086696 0.9706146752 1
13.888304472 100.8893597126 0 -0 0
17.4438564777 100.8893597126 0 -0 0
20.9994084835 100.8893597126 0 -0 0
24.5549604893 100.8893597126 0 -0 0
28.110512495 100.8893597126 0 -0 0
31.6660645008 100.8893597126 0 -0 0
35.2216165066 100.8893597126 -9.0479087909 0.2327707631 1
38.7771685123 100.8893597126 -9.6806180896 0.5609346381 1
42.3327205181 100.8893597126 -9.2079956102 0.6377998525 1
45.8882725239 100.8893597126 -8.8511885994 0.4761980386 1
49.4438245296 100.8893597126 -9.6259250651 1.0940666905 1
52.9993765354 100.8893597126 0 -0 0
-124.778223753 97.3338077068 0 -0 0
-121.2226717472 97.3338077068 -10.1161346561 -1.5799503847 1
-117.6671197414 97.3338077068 -10.3347091462 -1.7285487334 1
-114.1115677357 97.3338077068 -10.9360574833 -1.4299487328 1
-110.5560157299 97.3338077068 -11.5948266944 -1.4079884704 1
-107.0004637241 97.3338077068 -11.1009935742 -1.133479462 1
-103.4449117184 97.3338077068 -11.3751918512 -0.8325840584 1
-99.8893597126 97.3338077068 -11.5555485255 -0.3837332481 1
-96.3338077068 97.3338077068 -12.008517601 -0.2709678159 1
-92.7782557011 97.3338077068 -11.3344924798 0.0985877745 1
-89.2227036953 97.3338077068 -11.8099881509 -0.1871376356 1
-85.6671516895 97.3338077068 -10.9696830612 -0.1586677648 1
-82.1115996838 97.3338077068 -11.8245681843 -0.1840632561 1
-78.556047678 97.3338077068 -11.2857735173 -0.1983826761 1
-75.0004956722 97.3338077068 -11.4379452773 0.4901909758 1
-71.4449436665 97.3338077068 -11.8944985036 0.5638901664 1
-67.8893916607 97.3338077068 0 -0 0
-64.3338396549 97.3338077068 0 -0 0
-60.7782876492 97.3338077068 -11.6270482532 1.0933278084 1
-57.2227356434 97.3338077068 -11.2878398096 1.0814842161 1
-53.6671836376 97.3338077068 -11.304123138 0.6693813333 1
-50.1116316319 97.3338077068 -11.1185126686 1.2057180718 1
-46.5560796261 97.3338077068 -11.0888421144 1.479639984 1
-43.0005276203 97.3338077068 -11.2722352217 1.0213626995 1
-39.4449756145 97.3338077068 -10.7644886371 0.6793591051 1
-35.8894236088 97.3338077068 -10.6700835652 0.8142523369 1
-32.333871603 97.3338077068 -10.922857126 0.7313887175 1
-28.7783195972 97.3338077068 -10.7914921992 1.073168929 1
-25.2227675915 97.3338077068 0 -0 0
-21.6672155857 97.3338077068 -10.0918961739 1.3410552057 1
-18.1116635799 97.3338077068 -10.0218512992 1.8746512072 1
-14.5561115742 97.3338077068 -9.9971975539 1.318582308 1
-11.0005595684 97.3338077068 -9.3825579312 1.2033195689 1
-7.4450075626 97.3338077068 -10.565982814 0.5488562074 1
-3.8894555569 97.3338077068 -9.8698979104 1.5738789506 1
-0.3339035511 97.3338077068 -9.4891201906 1.0136788987 1
3.2216484547 97.3338077068 -9.3538045359 1.9338448254 1
6.7772004604 97.3338077068 -9.7184070389 1.1354469503 1
10.3327524662 97.3338077068 -9.1764241531 0.7540706787 1
13.888304472 97.3338077068 -9.6011453088 0.6152954521 1
17.4438564777 97.3338077068 0 -0 0
20.9994084835 97.3338077068 0 -0 0
24.5549604893 97.3338077068 0 -0 0
28.110512495 97.3338077068 0 -0 0
31.6660645008 97.3338077068 0 -0 0
35.2216165066 97.3338077068 -9.0956325537 0.5959814185 1
38.7771685123 97.3338077068 -8.7015850275 0.468088951 1
42.3327205181 97.3338077068 -9.1363297772 0.6088631687 1
45.8882725239 97.3338077068 -8.8990054385 0.3287581309 1
49.4438245296 97.3338077068 -9.1015106756 0.0947043478 1
52.9993765354 97.3338077068 0 -0 0
-124.778223753 93.7782557011 -8.9887538351 -2.0809725697 1
-121.2226717472 93.7782557011 -9.9139859725 -2.1328632838 1
-117.6671197414 93.7782557011 -9.7949028122 -1.8488060861 1
-114.1115677357 93.7782557011 -10.87733569 -2.1001033148 1
-110.5560157299 93.7782557011 -11.3992828434 -1.7725236721 1
-107.0004637241 93.7782557011 -11.6797157958 -2.0518955555 1
-103.4449117184 93.7782557011 -12.536818281 -1.0214027939 1
-99.8893597126 93.7782557011 -12.6752154749 -0.4322388512 1
-96.3338077068 93.7782557011 -11.8961545445 0.1551065251 1
-92.7782557011 93.7782557011 -11.3867247121 0.05979217 1
-89.2227036953 93.7782557011 -11.1989613178 0.4714654703 1
-85.6671516895 93.7782557011 -11.252551747 0.0335231941 1
-82.1115996838 93.7782557011 -11.6491939522 -0.0095310059 1
-78.556047678 93.7782557011 -11.2271712911 -0.0307752974 1
-75.0004956722 93.7782557011 -12.0919425417 -0.4487921007 1
-71.4449436665 93.7782557011 -11.4984634418 0.5646505276 1
-67.8893916607 93.7782557011 0 -0 0
-64.3338396549 93.7782557011 -11.4052296985 0.6710724568 1
-60.7782876492 93.7782557011 -10.6862444625 1.158339407 1
-57.2227356434 93.7782557011 -10.1580919885 0.5198923166 1
-53.6671836376 93.7782557011 -11.9122187858 1.3953931086 1
-50.1116316319 93.7782557011 -11.0210854831 0.9806568844 1
-46.5560796261 93.7782557011 -11.6083485227 1.0984097705 1
-43.0005276203 93.7782557011 -10.8138276305 1.0324301792 1
-39.4449756145 93.7782557011 -11.0787769941 0.9214074204 1
-35.8894236088 93.7782557011 -10.6326733645 1.4598290665 1
-32.333871603 93.7782557011 -11.1412991615 1.1356932443 1
-28.7783195972 93.7782557011 0 -0 0
-25.2227675915 93.7782557011 -11.0696999138 1.0111343378 1
-21.6672155857 93.7782557011 -10.4123361538 1.0439687678 1
-18.1116635799 93.7782557011 -9.9613417263 1.5047934771 1
-14.5561115742 93.7782557011 -10.3695955491 0.8984705735 1
-11.0005595684 93.7782557011 -9.0058354711 0.9218971446 1
-7.4450075626 93.7782557011 -9.9088123661 1.6300339879 1
-3.8894555569 93.7782557011 -10.4231716589 0.9665522557 1
-0.3339035511 93.7782557011 -9.5944853466 0.951436676 1
3.2216484547 93.7782557011 -9.1391535668 1.711870905 1
6.7772004604 93.7782557011 -9.6934754968 2.0853199456 1
10.3327524662 93.7782557011 -8.896079981 1.0660994313 1
13.888304472 93.7782557011 -8.7518877178 1.3865136363 1
17.4438564777 93.7782557011 0 -0 0
20.9994084835 93.7782557011 0 -0 0
24.5549604893 93.7782557011 0 -0 0
28.110512495 93.7782557011 0 -0 0
31.6660645008 93.7782557011 0 -0 0
35.2216165066 93.7782557011 -8.7081418899 0.4130508285 1
38.7771685123 93.7782557011 -8.2524821953 0.7720043203 1
42.3327205181 93.7782557011 -8.4155961401 0.3286178006 1
45.8882725239 93.7782557011 -8.7170041789 0.4617325605 1
49.4438245296 93.7782557011 -8.7283609108 0.2398760593 1
52.9993765354 93.7782557011 0 -0 0
-124.778223753 90.2227036953 -8.8242480427 -2.3865547194 1
-121.2226717472 90.2227036953 -9.3858055756 -2.4263913458 1
-117.6671197414 90.2227036953 -9.991985285 -2.6202390615 1
-114.1115677357 90.2227036953 -9.9891915662 -2.7841362785 1
-110.5560157299 90.2227036953 -11.3136383926 -2.9643490426 1
-107.0004637241 90.2227036953 -11.9653309464 -2.5208021455 1
-103.4449117184 90.2227036953 -12.8332445936 1.4599708287 1
-99.8893597126 90.2227036953 -12.4318912993 0.4364673759 1
-96.3338077068 90.2227036953 -11.8030088656 0.7485319271 1
-92.7782557011 90.2227036953 -11.2674596951 1.3425888155 1
-89.2227036953 90.2227036953 -11.1515525822 -0.340162117 1
-85.6671516895 90.2227036953 -10.8533986316 0.0656087184 1
-82.1115996838 90.2227036953 -11.7807622147 -0.5121383507 1
-78.556047678 90.2227036953 -12.356801693 -0.8371877519 1
-75.0004956722 90.2227036953 -12.0067548804 -0.3147480105 1
-71.4449436665 90.2227036953 -12.3047935597 0.4521313894 1
-67.8893916607 90.2227036953 0 -0 0
-64.3338396549 90.2227036953 -11.7525558213 0.7738701407 1
-60.7782876492 90.2227036953 -12.1578061457 0.5971011971 1
-57.2227356434 90.2227036953 -11.5369669302 0.8469908268 1
-53.6671836376 90.2227036953 -12.237785834 1.7137625003 1
-50.1116316319 90.2227036953 -11.2122841062 1.0489390385 1
-46.5560796261 90.2227036953 -11.1936380734 1.5303421862 1
-43.0005276203 90.2227036953 -11.2282266324 1.4301706838 1
-39.4449756145 90.2227036953 -10.7637461752 1.2040355399 1
-35.8894236088 90.2227036953 -10.3594216012 1.6100412138 1
-32.333871603 90.2227036953 -10.355649866 1.1842446696 1
-28.7783195972 90.2227036953 -10.2580300843 1.9172371622 1
-25.2227675915 90.2227036953 -10.3258597447 1.2127030848 1
-21.6672155857 90.2227036953 -10.5631640362 0.8822753095 1
-18.1116635799 90.2227036953 -10.4086388795 1.6766952498 1
-14.5561115742 90.2227036953 -9.7156863491 1.2838791937 1
-11.0005595684 90.2227036953 -9.8647386234 1.807160917 1
-7.4450075626 90.2227036953 -10.148526616 1.9222002731 1
-3.8894555569 90.2227036953 -9.6880097742 1.5803756715 1
-0.3339035511 90.2227036953 -9.2672780088 1.3961835406 1
3.2216484547 90.2227036953 -9.2126866522 1.2595419075 1
6.7772004604 90.2227036953 -9.1017397863 1.866658107 1
10.3327524662 90.2227036953 -9.7631695457 0.8737838935 1