TITLE = "B00005"
VARIABLES = "x", "y", "Vx", "Vy", "isValid"
ZONE T="Frame 0", I=51, J=39, F=POINT
-124.778223753 125.778223753 -10.1623477201 -0.3036662113 1
-121.2226717472 125.778223753 -10.2202339753 -0.1244071206 1
-117.6671197414 125.778223753 -10.1862425362 -0.1200354017 1
-114.1115677357 125.778223753 -10.1965038325 -0.0446708625 1
-110.5560157299 125.778223753 -10.6124615033 0.2510208639 1
-107.0004637241 125.778223753 -10.0795170353 -0.1603860952 1
-103.4449117184 125.778223753 -10.6517883582 -0.0501809753 1
-99.8893597126 125.778223753 -10.6265067063 0.1091612342 1
-96.3338077068 125.778223753 -9.9544970435 -0.0284412319 1
-92.7782557011 125.778223753 -10.7798318956 -0.0619486746 1
-89.2227036953 125.778223753 -10.5140369702 -0.2394808433 1
-85.6671516895 125.778223753 -10.1459276412 -0.0375798857 1
-82.1115996838 125.778223753 -10.9039619354 -0.0515885743 1
-78.556047678 125.778223753 -10.4732753093 0.7976747445 1
-75.0004956722 125.778223753 -10.7342188152 0.3666415884 1
-71.4449436665 125.778223753 -10.9800589129 0.624703311 1
-67.8893916607 125.778223753 0 -0 0
-64.3338396549 125.778223753 0 -0 0
-60.7782876492 125.778223753 0 -0 0
-57.2227356434 125.778223753 -9.727736141 0.7872831414 1
-53.6671836376 125.778223753 0 -0 0
-50.1116316319 125.778223753 -9.3468968477 0.7368444165 1
-46.5560796261 125.778223753 0 -0 0
-43.0005276203 125.778223753 -10.4035383022 0.67158366 1
-39.4449756145 125.778223753 -10.6105326774 0.305229892 1
-35.8894236088 125.778223753 -9.6239833517 0.8800844383 1
-32.333871603 125.778223753 -10.002650389 0.5935943712 1
-28.7783195972 125.778223753 -9.7445313887 1.4682116549 1
-25.2227675915 125.778223753 0 -0 0
-21.6672155857 125.778223753 -9.9584921617 0.5967632588 1
-18.1116635799 125.778223753 -10.0855927652 0.8355682255 1
-14.5561115742 125.778223753 -9.6314179946 0.5601327506 1
-11.0005595684 125.778223753 0 -0 0
-7.4450075626 125.778223753 -10.1491223038 1.5140395266 1
-3.8894555569 125.778223753 -9.8834641289 0.9387253269 1
-0.3339035511 125.778223753 -8.9891404594 0.9093490368 1
3.2216484547 125.778223753 -9.2121167393 1.0028018673 1
6.7772004604 125.778223753 -9.3218178156 1.0967816525 1
10.3327524662 125.778223753 -9.311711169 0.880462471 1
13.888304472 125.778223753 0 -0 0
17.4438564777 125.778223753 0 -0 0
20.9994084835 125.778223753 0 -0 0
24.5549604893 125.778223753 0 -0 0
28.110512495 125.778223753 0 -0 0
31.6660645008 125.778223753 0 -0 0
35.2216165066 125.778223753 0 -0 0
38.7771685123 125.778223753 -9.3053748256 0.9097127501 1
42.3327205181 125.778223753 -8.8750920072 0.2572354921 1
45.8882725239 125.778223753 -9.3409385371 0.902432757 1
49.4438245296 125.778223753 -9.8436146151 -0.2885391761 1
52.9993765354 125.778223753 0 -0 0
-124.778223753 122.2226717472 -10.2596209718 -0.2017019176 1
-121.2226717472 122.2226717472 -10.2659587471 0.1577284109 1
-117.6671197414 122.2226717472 -9.5971587823 0.1687887308 1
-114.1115677357 122.2226717472 -10.4432661009 -0.040190316 1
-110.5560157299 122.2226717472 -9.914442762 -0.0188028304 1
-107.0004637241 122.2226717472 -10.4814989522 -0.2267823817 1
-103.4449117184 122.2226717472 -10.6862745333 0.0829266249 1
-99.8893597126 122.2226717472 -9.8771693119 0.0953759286 1
-96.3338077068 122.2226717472 -10.4469533515 0.0348148058 1
-92.7782557011 122.2226717472 -10.7186006239 -0.3373010969 1
-89.2227036953 122.2226717472 -10.1298984825 -0.0588370647 1
-85.6671516895 122.2226717472 -10.6050970256 0.3018161423 1
-82.1115996838 122.2226717472 -10.8545570727 0.4128145581 1
-78.556047678 122.2226717472 -10.9042325724 0.4779249606 1
-75.0004956722 122.2226717472 -10.817739696 0.3410398974 1
-71.4449436665 122.2226717472 -11.0433743762 0.486877462 1
-67.8893916607 122.2226717472 0 -0 0
-64.3338396549 122.2226717472 0 -0 0
-60.7782876492 122.2226717472 0 -0 0
-57.2227356434 122.2226717472 -10.1886596543 0.5746268675 1
-53.6671836376 122.2226717472 -9.9852981159 0.5968191045 1
-50.1116316319 122.2226717472 -10.4144411085 0.6830606751 1
-46.5560796261 122.2226717472 -10.4006214363 0.609471744 1
-43.0005276203 122.2226717472 -10.2949140462 1.5144877244 1
-39.4449756145 122.2226717472 -9.7393849891 0.8551428726 1
-35.8894236088 122.2226717472 -10.3725381899 1.1340894693 1
-32.333871603 122.2226717472 0 -0 0
-28.7783195972 122.2226717472 -10.3087279906 0.6389582936 1
-25.2227675915 122.2226717472 0 -0 0
-21.6672155857 122.2226717472 -10.0263261179 1.2868189706 1
-18.1116635799 122.2226717472 -9.804808987 0.9207902534 1
-14.5561115742 122.2226717472 -9.7636821809 1.0414714609 1
-11.0005595684 122.2226717472 -9.8183250875 1.7196649652 1
-7.4450075626 122.2226717472 -9.6826027612 1.8468013673 1
-3.8894555569 122.2226717472 -9.5354850405 0.6629748248 1
-0.3339035511 122.2226717472 -10.4358930316 0.7260747808 1
3.2216484547 122.2226717472 -10.050961248 1.1318470481 1
6.7772004604 122.2226717472 -9.8978866487 0.9880542967 1
10.3327524662 122.2226717472 -10.129219742 0.8265283757 1
13.888304472 122.2226717472 0 -0 0
17.4438564777 122.2226717472 0 -0 0
20.9994084835 122.2226717472 0 -0 0
24.5549604893 122.2226717472 0 -0 0
28.110512495 122.2226717472 0 -0 0
31.6660645008 122.2226717472 0 -0 0
35.2216165066 122.2226717472 0 -0 0
38.7771685123 122.2226717472 -9.571219153 0.9196590192 1
42.3327205181 122.2226717472 -8.8359126422 0.7267678407 1
45.8882725239 122.2226717472 -9.6160489611 0.9462602057 1
49.4438245296 122.2226717472 -8.8248480264 0.9913749702 1
52.9993765354 122.2226717472 0 -0 0
-124.778223753 118.6671197414 -10.0076593221 -0.4067058935 1
-121.2226717472 118.6671197414 -10.166719439 0.2546637243 1
-117.6671197414 118.6671197414 -10.245199884 -0.2651297883 1
-114.1115677357 118.6671197414 -9.9081092826 -0.0935487706 1
-110.5560157299 118.6671197414 -10.5394338934 0.0945239231 1
-107.0004637241 118.6671197414 -10.3395863407 -0.2734035492 1
-103.4449117184 118.6671197414 -10.2367958164 -0.0641638889 1
-99.8893597126 118.6671197414 -10.9887529488 -0.2291622693 1
-96.3338077068 118.6671197414 -10.6137688663 -0.0916528794 1
-92.7782557011 118.6671197414 -10.3702556743 0.1521381093 1
-89.2227036953 118.6671197414 -10.9858389468 -0.1923985905 1
-85.6671516895 118.6671197414 -10.8536506534 0.1442438131 1
-82.1115996838 118.6671197414 -10.6948411263 0.1939923419 1
-78.556047678 118.6671197414 -10.8835145197 0.3186171177 1
-75.0004956722 118.6671197414 -10.5205752173 0.5372202467 1
-71.4449436665 118.6671197414 -10.9101464929 0.5596129557 1
-67.8893916607 118.6671197414 0 -0 0
-64.3338396549 118.6671197414 0 -0 0
-60.7782876492 118.6671197414 0 -0 0
-57.2227356434 118.6671197414 -10.8309350415 0.7397226199 1
-53.6671836376 118.6671197414 -10.7234785343 0.9529316234 1
-50.1116316319 118.6671197414 -10.4944995536 0.7670168663 1
-46.5560796261 118.6671197414 -10.2562530443 0.7450909705 1
-43.0005276203 118.6671197414 -9.9229442017 1.0151394796 1
-39.4449756145 118.6671197414 -10.5607669653 0.6396069633 1
-35.8894236088 118.6671197414 -10.4067329647 0.4691686353 1
-32.333871603 118.6671197414 -10.5406095178 1.120097964 1
-28.7783195972 118.6671197414 -10.4823652771 1.0364525042 1
-25.2227675915 118.6671197414 0 -0 0
-21.6672155857 118.6671197414 -10.666508722 1.5352408597 1
-18.1116635799 118.6671197414 -9.8825204791 0.7829815876 1
-14.5561115742 118.6671197414 -10.0713521021 0.9876361697 1
-11.0005595684 118.6671197414 -9.599636042 0.6613352512 1
-7.4450075626 118.6671197414 -9.3901815904 0.9860667612 1
-3.8894555569 118.6671197414 -9.562901002 0.7395178522 1
-0.3339035511 118.6671197414 -10.064664933 0.6102507205 1
3.2216484547 118.6671197414 -10.147415429 1.2586941979 1
6.7772004604 118.6671197414 -9.701888156 0.6129384756 1
10.3327524662 118.6671197414 -9.9027079974 0.5879510878 1
13.888304472 118.6671197414 0 -0 0
17.4438564777 118.6671197414 0 -0 0
20.9994084835 118.6671197414 0 -0 0
24.5549604893 118.6671197414 0 -0 0
28.110512495 118.6671197414 0 -0 0
31.6660645008 118.6671197414 0 -0 0
35.2216165066 118.6671197414 0 -0 0
38.7771685123 118.6671197414 -9.3216760533 0.5937576126 1
42.3327205181 118.6671197414 -9.8971821332 0.3818273333 1
45.8882725239 118.6671197414 -10.010228226 0.5057475936 1
49.4438245296 118.6671197414 -9.4745831155 0.4961535822 1
52.9993765354 118.6671197414 0 -0 0
-124.778223753 115.1115677357 -9.567394436 -0.3118483279 1
-121.2226717472 115.1115677357 -10.0652964194 -0.3943682813 1
-117.6671197414 115.1115677357 -10.0202561158 -0.2200765973 1
-114.1115677357 115.1115677357 -10.1471906141 -0.0084355703 1
-110.5560157299 115.1115677357 -10.3101785479 -0.4146889701 1
-107.0004637241 115.1115677357 -10.7145625474 -0.5870503963 1
-103.4449117184 115.1115677357 -10.4494248834 -0.4715986409 1
-99.8893597126 115.1115677357 -10.9123130211 -0.3014452693 1
-96.3338077068 115.1115677357 -10.5104499555 -0.6582522801 1
-92.7782557011 115.1115677357 -11.2204862699 -0.6162190547 1
-89.2227036953 115.1115677357 -11.2190292689 0.2366126635 1
-85.6671516895 115.1115677357 -10.2724912665 -0.1554272801 1
-82.1115996838 115.1115677357 -11.0582973597 0.0124765106 1
-78.556047678 115.1115677357 -10.6269806791 0.345839767 1
-75.0004956722 115.1115677357 -10.8119503545 0.1269831843 1
-71.4449436665 115.1115677357 -11.0244799016 0.5271293515 1
-67.8893916607 115.1115677357 0 -0 0
-64.3338396549 115.1115677357 0 -0 0
-60.7782876492 115.1115677357 -10.8993260232 0.5081518242 1
-57.2227356434 115.1115677357 -10.5996663856 0.4486703856 1
-53.6671836376 115.1115677357 -9.8834813122 1.1794290487 1
-50.1116316319 115.1115677357 0 -0 0
-46.5560796261 115.1115677357 -10.4869804261 0.8552746112 1
-43.0005276203 115.1115677357 -10.4237430037 0.819410192 1
-39.4449756145 115.1115677357 -9.5838231065 0.9749405719 1
-35.8894236088 115.1115677357 -10.4065582678 0.5227948631 1
-32.333871603 115.1115677357 0 -0 0
-28.7783195972 115.1115677357 -10.9062630662 1.2025892785 1
-25.2227675915 115.1115677357 -10.777672527 1.3800570098 1
-21.6672155857 115.1115677357 -9.7402556099 1.3252121994 1
-18.1116635799 115.1115677357 -9.5380696958 1.5935624253 1
-14.5561115742 115.1115677357 -9.4644292148 0.4012315792 1
-11.0005595684 115.1115677357 -10.2679190757 1.0130259332 1
-7.4450075626 115.1115677357 -9.6334613758 0.7550744701 1
-3.8894555569 115.1115677357 -10.1897908885 1.081908071 1
-0.3339035511 115.1115677357 -9.6402158462 1.2226865844 1
3.2216484547 115.1115677357 -9.627901145 1.228695013 1
6.7772004604 115.1115677357 -9.4297919699 0.3923148764 1
10.3327524662 115.1115677357 -9.3359210123 0.8296185065 1
13.888304472 115.1115677357 0 -0 0
17.4438564777 115.1115677357 0 -0 0
20.9994084835 115.1115677357 0 -0 0
24.5549604893 115.1115677357 0 -0 0
28.110512495 115.1115677357 0 -0 0
31.6660645008 115.1115677357 0 -0 0
35.2216165066 115.1115677357 0 -0 0
38.7771685123 115.1115677357 -8.3002632359 0.7787659504 1
42.3327205181 115.1115677357 -8.9826136678 0.613249207 1
45.8882725239 115.1115677357 -9.2006139492 0.5741758058 1
49.4438245296 115.1115677357 -9.0424402044 0.2715277052 1
52.9993765354 115.1115677357 0 -0 0
-124.778223753 111.5560157299 -9.6991202121 -0.1154760984 1
-121.2226717472 111.5560157299 -10.133860666 -0.80988205 1
-117.6671197414 111.5560157299 -10.4036442659 0.0016739402 1
-114.1115677357 111.5560157299 -9.9571003141 -0.48297542 1
-110.5560157299 111.5560157299 -10.3341492569 -0.5777313177 1
-107.0004637241 111.5560157299 -10.3537597025 -0.3595992977 1
-103.4449117184 111.5560157299 -10.2040659182 -0.4678627042 1
-99.8893597126 111.5560157299 0 -0 0
-96.3338077068 111.5560157299 -10.3907152616 -0.4339843885 1
-92.7782557011 111.5560157299 -10.8100057773 0.064630702 1
-89.2227036953 111.5560157299 -11.0875547986 -0.0671323047 1
-85.6671516895 111.5560157299 -10.9084933159 0.1390043373 1
-82.1115996838 111.5560157299 -10.8004053222 -0.3229401506 1
-78.556047678 111.5560157299 -11.2914568951 0.2610816883 1
-75.0004956722 111.5560157299 -11.1472152299 0.2095561195 1
-71.4449436665 111.5560157299 -11.2289390235 0.1182612256 1
-67.8893916607 111.5560157299 0 -0 0
-64.3338396549 111.5560157299 0 -0 0
-60.7782876492 111.5560157299 -10.8487405243 0.3499680558 1
-57.2227356434 111.5560157299 -11.1725606032 0.6832196207 1
-53.6671836376 111.5560157299 -10.9885080867 0.4054858789 1
-50.1116316319 111.5560157299 -10.8143459935 1.0720548781 1
-46.5560796261 111.5560157299 -10.2852770766 0.4548205765 1
-43.0005276203 111.5560157299 -10.2504679986 0.8484685909 1
-39.4449756145 111.5560157299 -10.7604219218 0.435082688 1
-35.8894236088 111.5560157299 -10.5522390347 2.0750701048 1
-32.333871603 111.5560157299 -10.061627784 1.2608048804 1
-28.7783195972 111.5560157299 -10.1456140459 0.6540294831 1
-25.2227675915 111.5560157299 -10.4976111635 1.2360394435 1
-21.6672155857 111.5560157299 -10.9189028182 1.4166531514 1
-18.1116635799 111.5560157299 -10.2514102164 1.4854622601 1
-14.5561115742 111.5560157299 -10.3555453342 1.0722983082 1
-11.0005595684 111.5560157299 -9.8742925404 1.1409255603 1
-7.4450075626 111.5560157299 -9.862773999 1.2446511427 1
-3.8894555569 111.5560157299 -9.8358620811 1.0564037521 1
-0.3339035511 111.5560157299 -9.7386589945 1.2573839709 1
3.2216484547 111.5560157299 -9.4821337456 1.0107319621 1
6.7772004604 111.5560157299 -9.7747969147 0.7402066163 1
10.3327524662 111.5560157299 -9.1986006388 0.7565235954 1
13.888304472 111.5560157299 0 -0 0
17.4438564777 111.5560157299 0 -0 0
20.9994084835 111.5560157299 0 -0 0
24.5549604893 111.5560157299 0 -0 0
28.110512495 111.5560157299 0 -0 0
31.6660645008 111.5560157299 0 -0 0
35.2216165066 111.5560157299 -8.9657396633 1.0291739431 1
38.7771685123 111.5560157299 -9.3834600546 1.0969964438 1
42.3327205181 111.5560157299 -8.3446004559 0.4722687897 1
45.8882725239 111.5560157299 -8.7609662301 0.0339312975 1
49.4438245296 111.5560157299 -8.4876385738 0.5661827055 1
52.9993765354 111.5560157299 0 -0 0
-124.778223753 108.0004637241 -9.4269953871 -0.1247636742 1
-121.2226717472 108.0004637241 -9.6544751246 -0.2522050799 1
-117.6671197414 108.0004637241 -9.8377565404 -0.2481340688 1
-114.1115677357 108.0004637241 -11.1333948417 -0.6897435484 1
-110.5560157299 108.0004637241 -10.4280932435 -0.7058915583 1
-107.0004637241 108.0004637241 -10.0773562349 -0.5152556885 1
-103.4449117184 108.0004637241 -10.9938141477 -0.5479068298 1
-99.8893597126 108.0004637241 -10.6928586026 -0.7531900344 1
-96.3338077068 108.0004637241 -10.289760487 -0.471990993 1
-92.7782557011 108.0004637241 -11.1566252367 -0.2725902061 1
-89.2227036953 108.0004637241 -11.2213547427 -0.0428780711 1
-85.6671516895 108.0004637241 -10.9733302175 0.0407774122 1
-82.1115996838 108.0004637241 -11.1833073279 0.531337829 1
-78.556047678 108.0004637241 -11.3481288635 0.4269263464 1
-75.0004956722 108.0004637241 -11.2756554152 0.7848588636 1
-71.4449436665 108.0004637241 -11.3590674684 0.4162283078 1
-67.8893916607 108.0004637241 0 -0 0
-64.3338396549 108.0004637241 0 -0 0
-60.7782876492 108.0004637241 -10.8019210328 0.7772352044 1
-57.2227356434 108.0004637241 -11.2636886759 0.7479104643 1
-53.6671836376 108.0004637241 -10.3051481357 0.7268365739 1
-50.1116316319 108.0004637241 -10.4764441969 0.6827227368 1
-46.5560796261 108.0004637241 -10.1252747418 1.1462939109 1
-43.0005276203 108.0004637241 -10.4543106695 0.8608634809 1
-39.4449756145 108.0004637241 -10.0212713627 0.7163619182 1
-35.8894236088 108.0004637241 -10.1829490696 0.9111260769 1
-32.333871603 108.0004637241 -10.9076413104 1.5603485307 1
-28.7783195972 108.0004637241 -10.4214518965 0.8378879715 1
-25.2227675915 108.0004637241 -10.344366163 1.3846778866 1
-21.6672155857 108.0004637241 -10.2629788758 1.3378046973 1
-18.1116635799 108.0004637241 -10.5382697246 1.1357433623 1
-14.5561115742 108.0004637241 -10.5116513548 1.4744377387 1
-11.0005595684 108.0004637241 0 -0 0
-7.4450075626 108.0004637241 -9.7729926678 0.9102110659 1
-3.8894555569 108.0004637241 0 -0 0
-0.3339035511 108.0004637241 -9.843270949 1.7208377257 1
3.2216484547 108.0004637241 -9.7700142284 0.9165416815 1
6.7772004604 108.0004637241 -9.9891328565 1.1560769386 1
10.3327524662 108.0004637241 -9.5606485572 0.9782039677 1
13.888304472 108.0004637241 0 -0 0
17.4438564777 108.0004637241 0 -0 0
20.9994084835 108.0004637241 0 -0 0
24.5549604893 108.0004637241 0 -0 0
28.110512495 108.0004637241 0 -0 0
31.6660645008 108.0004637241 0 -0 0
35.2216165066 108.0004637241 -10.1573702897 1.0724644135 1
38.7771685123 108.0004637241 -8.7443184724 0.8385022746 1
42.3327205181 108.0004637241 -9.64105926 0.2106243482 1
45.8882725239 108.0004637241 -8.8430580328 0.5063103468 1
49.4438245296 108.0004637241 -9.5295195702 0.5503740659 1
52.9993765354 108.0004637241 0 -0 0
-124.778223753 104.4449117184 -8.9582534705 0.3131084369 1
-121.2226717472 104.4449117184 -9.5303085702 -0.6532118442 1
-117.6671197414 104.4449117184 -9.831593462 -0.7044653441 1
-114.1115677357 104.4449117184 -9.909827613 -0.4198110266 1
-110.5560157299 104.4449117184 -10.3164089275 -0.5565643512 1
-107.0004637241 104.4449117184 -10.8674681777 -0.7213565319 1
-103.4449117184 104.4449117184 -10.4990674485 -0.5187181242 1
-99.8893597126 104.4449117184 -10.8922651172 -0.4556582626 1
-96.3338077068 104.4449117184 -10.9541937447 -0.790527922 1
-92.7782557011 104.4449117184 -11.016544079 -0.2776406656 1
-89.2227036953 104.4449117184 -11.8846345711 -0.2356790373 1
-85.6671516895 104.4449117184 -10.5536860121 0.747052731 1
-82.1115996838 104.4449117184 -11.4690928796 0.1398620706 1
-78.556047678 104.4449117184 -11.2418322292 0.0365818222 1
-75.0004956722 104.4449117184 -11.6552811376 -0.3307385067 1
-71.4449436665 104.4449117184 -11.3166111042 -0.060359219 1
-67.8893916607 104.4449117184 0 -0 0
-64.3338396549 104.4449117184 0 -0 0
-60.7782876492 104.4449117184 -11.352681723 1.115505726 1
-57.2227356434 104.4449117184 -10.9306196836 0.689210866 1
-53.6671836376 104.4449117184 -11.0787755622 1.3234351594 1
-50.1116316319 104.4449117184 -10.9761124808 1.2293780494 1
-46.5560796261 104.4449117184 -11.4308793595 1.0464918496 1
-43.0005276203 104.4449117184 -11.175110176 1.2238593449 1
-39.4449756145 104.4449117184 -10.3085447021 0.8531897037 1
-35.8894236088 104.4449117184 -9.6039089569 0.1876832055 1
-32.333871603 104.4449117184 -9.9737781425 1.3347603886 1
-28.7783195972 104.4449117184 -10.0063161605 1.1434200033 1
-25.2227675915 104.4449117184 -9.7111671401 1.3678267932 1
-21.6672155857 104.4449117184 -10.031780385 1.2223529419 1
-18.1116635799 104.4449117184 -10.3481479219 1.0739464735 1
-14.5561115742 104.4449117184 -10.2878187736 1.596185743 1
-11.0005595684 104.4449117184 -10.2660375039 1.4223923749 1
-7.4450075626 104.4449117184 -9.9475005749 1.0567459862 1
-3.8894555569 104.4449117184 -9.5842512571 1.9909721514 1
-0.3339035511 104.4449117184 -10.1752423578 1.1546550202 1
3.2216484547 104.4449117184 -9.6831526269 0.974641296 1
6.7772004604 104.4449117184 -9.9206344792 0.8145587725 1
10.3327524662 104.4449117184 -8.9356187634 0.9741458441 1
13.888304472 104.4449117184 0 -0 0
17.4438564777 104.4449117184 0 -0 0
20.9994084835 104.4449117184 0 -0 0
24.5549604893 104.4449117184 0 -0 0
28.110512495 104.4449117184 0 -0 0
31.6660645008 104.4449117184 0 -0 0
35.2216165066 104.4449117184 -8.5233254322 0.588339144 1
38.7771685123 104.4449117184 -9.0315789243 0.9282077129 1
42.3327205181 104.4449117184 -8.3542145144 1.0846187372 1
45.8882725239 104.4449117184 -9.4346190463 0.3159050196 1
49.4438245296 104.4449117184 -9.0390121352 0.1596572367 1
52.9993765354 104.4449117184 0 -0 0
-124.778223753 100.8893597126 -10.3275608918 -0.2325717232 1
-121.2226717472 100.8893597126 -10.273417733 -0.764778741 1
-117.6671197414 100.8893597126 -9.9773479739 -0.6566442092 1
-114.1115677357 100.8893597126 -10.1708992777 -0.8799469718 1
-110.5560157299 100.8893597126 -10.1276088073 -0.9016251417 1
-107.0004637241 100.8893597126 -10.6595423242 -0.8920540414 1
-103.4449117184 100.8893597126 -10.6880401178 -0.6732318253 1
-99.8893597126 100.8893597126 -10.7409174399 -0.8010355123 1
-96.3338077068 100.8893597126 -10.9211080089 -0.6662181734 1
-92.7782557011 100.8893597126 -11.2686052487 -0.6615672258 1
-89.2227036953 100.8893597126 -11.1064507052 -0.2629961948 1
-85.6671516895 100.8893597126 -11.4552488643 -0.5603117434 1
-82.1115996838 100.8893597126 -11.4071570924 0.3434283767 1
-78.556047678 100.8893597126 -10.9321010276 0.0055988932 1
-75.0004956722 100.8893597126 -10.9054482912 0.3525140487 1
-71.4449436665 100.8893597126 -10.7610870589 0.1511715485 1
-67.8893916607 100.8893597126 0 -0 0
-64.3338396549 100.8893597126 0 -0 0
-60.7782876492 100.8893597126 -11.5615390548 0.925047417 1
-57.2227356434 100.8893597126 -11.0185595374 0.9143679935 1
-53.6671836376 100.8893597126 -10.7976724609 0.6874739204 1
-50.1116316319 100.8893597126 -11.4063680924 1.1029576183 1
-46.5560796261 100.8893597126 -10.8042515184 1.8230583371 1
-43.0005276203 100.8893597126 -10.7634146806 1.1959679787 1
-39.4449756145 100.8893597126 -10.6415277779 0.2840342866 1
-35.8894236088 100.8893597126 -10.3249662129 1.2147149633 1
-32.333871603 100.8893597126 -11.0972089515 1.4893084563 1
-28.7783195972 100.8893597126 -10.7578895324 0.9613428507 1
-25.2227675915 100.8893597126 -10.1763306337 1.4929398612 1
-21.6672155857 100.8893597126 -10.4145857347 0.3780828049 1
-18.1116635799 100.8893597126 -10.734940514 2.0115147912 1
-14.5561115742 100.8893597126 -9.6642309454 1.2937782087 1
-11.0005595684 100.8893597126 -9.9091617599 1.7808618703 1
-7.4450075626 100.8893597126 -9.9130795532 1.5216846649 1
-3.8894555569 100.8893597126 -9.3874107826 0.9073829805 1
-0.3339035511 100.8893597126 -9.1458192568 1.4733322795 1
3.2216484547 100.8893597126 -9.5673400222 1.1174259602 1
6.7772004604 100.8893597126 -9.429369547 1.3470808176 1
10.3327524662 100.8893597126 -9.1608317367 1.5661106653 1
13.888304472 100.8893597126 0 -0 0
17.4438564777 100.8893597126 0 -0 0
20.9994084835 100.8893597126 0 -0 0
24.5549604893 100.8893597126 0 -0 0
28.110512495 100.8893597126 0 -0 0
31.6660645008 100.8893597126 0 -0 0
35.2216165066 100.8893597126 -8.918199189 0.5524374943 1
38.7771685123 100.8893597126 -9.2769335937 0.9575711155 1
42.3327205181 100.8893597126 -8.7345511961 0.1882774614 1
45.8882725239 100.8893597126 -8.6309201219 0.6043539833 1
49.4438245296 100.8893597126 -9.0045510192 0.4165547905 1
52.9993765354 100.8893597126 0 -0 0
-124.778223753 97.3338077068 -9.2820570822 0.0517761587 1
-121.2226717472 97.3338077068 -9.8050524171 -0.5552770353 1
-117.6671197414 97.3338077068 -8.8243812133 -0.5333053173 1
-114.1115677357 97.3338077068 -9.7392260436 -1.2512896258 1
-110.5560157299 97.3338077068 -10.5308880636 -1.2891831068 1
-107.0004637241 97.3338077068 -10.4005097448 -1.2498820268 1
-103.4449117184 97.3338077068 -10.3178480292 -1.3436942748 1
-99.8893597126 97.3338077068 -10.9188319371 -1.6880018638 1
-96.3338077068 97.3338077068 -10.6894484327 -1.2893477802 1
-92.7782557011 97.3338077068 -12.2874398546 -1.1955298045 1
-89.2227036953 97.3338077068 -11.6434518648 -0.6654907469 1
-85.6671516895 97.3338077068 -11.3644193516 -0.461721105 1
-82.1115996838 97.3338077068 -11.7902982324 -0.1337090158 1
-78.556047678 97.3338077068 -11.8296236555 0.253065677 1
-75.0004956722 97.3338077068 -11.7120175434 0.7208123939 1
-71.4449436665 97.3338077068 -11.6204527284 0.3471170593 1
-67.8893916607 97.3338077068 0 -0 0
-64.3338396549 97.3338077068 0 -0 0
-60.7782876492 97.3338077068 -11.6951177639 1.3268861396 1
-57.2227356434 97.3338077068 -11.3323230877 0.7425177707 1
-53.6671836376 97.3338077068 -10.8030873496 0.9243973153 1
-50.1116316319 97.3338077068 -11.2813838991 1.5292424547 1
-46.5560796261 97.3338077068 -11.1796415564 1.122913162 1
-43.0005276203 97.3338077068 -9.8479705826 1.8052020204 1
-39.4449756145 97.3338077068 -10.7357531411 1.5270959737 1
-35.8894236088 97.3338077068 -10.8225001872 0.808745088 1
-32.333871603 97.3338077068 0 -0 0
-28.7783195972 97.3338077068 0 -0 0
-25.2227675915 97.3338077068 -10.1114837085 2.1082997508 1
-21.6672155857 97.3338077068 -9.8981401024 0.7974442018 1
-18.1116635799 97.3338077068 -10.0559114715 1.1511438984 1
-14.5561115742 97.3338077068 -9.8367441574 1.0298755947 1
-11.0005595684 97.3338077068 -10.3466157439 1.5514132126 1
-7.4450075626 97.3338077068 -9.954485588 1.619885815 1
-3.8894555569 97.3338077068 -9.9565432887 1.3510000428 1
-0.3339035511 97.3338077068 -9.4479704735 1.3879484421 1
3.2216484547 97.3338077068 -9.3143788769 1.431943428 1
6.7772004604 97.3338077068 -9.6413914706 2.0754051792 1
10.3327524662 97.3338077068 -9.0778220592 1.5921433708 1
13.888304472 97.3338077068 0 -0 0
17.4438564777 97.3338077068 0 -0 0
20.9994084835 97.3338077068 0 -0 0
24.5549604893 97.3338077068 0 -0 0
28.110512495 97.3338077068 0 -0 0
31.6660645008 97.3338077068 0 -0 0
35.2216165066 97.3338077068 -9.0215052124 1.0042266496 1
38.7771685123 97.3338077068 -8.4792531215 0.8620004428 1
42.3327205181 97.3338077068 -8.7736303251 0.4142092696 1
45.8882725239 97.3338077068 -8.3534154908 0.3599415318 1
49.4438245296 97.3338077068 -8.7780407065 0.2786315694 1
52.9993765354 97.3338077068 0 -0 0
-124.778223753 93.7782557011 -9.2483992856 -0.1009590704 1
-121.2226717472 93.7782557011 -8.9646757304 -0.7034758722 1
-117.6671197414 93.7782557011 -9.6514938213 -1.0672736238 1
-114.1115677357 93.7782557011 -9.1069649427 -1.0386834699 1
-110.5560157299 93.7782557011 -10.0712160676 -1.5964148538 1
-107.0004637241 93.7782557011 -9.7163464743 -1.7089769502 1
-103.4449117184 93.7782557011 -10.2817158368 -1.4932133622 1
-99.8893597126 93.7782557011 -10.8667951649 -1.7492145203 1
-96.3338077068 93.7782557011 -11.6831531726 -0.7543413158 1
-92.7782557011 93.7782557011 -11.7064415612 -0.924995867 1
-89.2227036953 93.7782557011 -11.7757174831 -0.503664118 1
-85.6671516895 93.7782557011 -11.5810091701 0.0348921306 1
-82.1115996838 93.7782557011 -12.4229330702 0.3616999566 1
-78.556047678 93.7782557011 -10.956924458 0.6404446494 1
-75.0004956722 93.7782557011 -11.2491294057 -0.0402619131 1
-71.4449436665 93.7782557011 -11.8825761545 0.5469388371 1
-67.8893916607 93.7782557011 0 -0 0
-64.3338396549 93.7782557011 -11.6896720885 1.0075874175 1
-60.7782876492 93.7782557011 -11.4038457265 0.7608996101 1
-57.2227356434 93.7782557011 -10.1862153293 0.8589002884 1
-53.6671836376 93.7782557011 -10.8860411813 1.4111945885 1
-50.1116316319 93.7782557011 -10.7510427017 0.7669939552 1
-46.5560796261 93.7782557011 -11.1064607288 1.103484573 1
-43.0005276203 93.7782557011 -11.6060430961 1.5584025215 1
-39.4449756145 93.7782557011 -11.0095110959 1.3238361032 1
-35.8894236088 93.7782557011 -10.4957124084 1.4768176263 1
-32.333871603 93.7782557011 -11.5127391876 2.0053646004 1
-28.7783195972 93.7782557011 -10.8888692668 0.9291814335 1
-25.2227675915 93.7782557011 -10.3303173801 1.2062206834 1
-21.6672155857 93.7782557011 -10.1842693201 2.3091625504 1
-18.1116635799 93.7782557011 -10.268258446 0.8995645772 1
-14.5561115742 93.7782557011 -10.6223734058 1.4768090347 1
-11.0005595684 93.7782557011 -10.4117218507 1.6179312142 1
-7.4450075626 93.7782557011 -10.1483547829 2.197957935 1
-3.8894555569 93.7782557011 -9.3546536775 1.1504093122 1
-0.3339035511 93.7782557011 -9.3248993548 1.1048878761 1
3.2216484547 93.7782557011 -9.6257976222 0.9596703425 1
6.7772004604 93.7782557011 -9.4103633809 1.0650440901 1
10.3327524662 93.7782557011 -9.076148119 0.9556422896 1
13.888304472 93.7782557011 -9.2941799031 1.1259560387 1
17.4438564777 93.7782557011 0 -0 0
20.9994084835 93.7782557011 0 -0 0
24.5549604893 93.7782557011 0 -0 0
28.110512495 93.7782557011 0 -0 0
31.6660645008 93.7782557011 0 -0 0
35.2216165066 93.7782557011 -8.3875329408 0.4951397673 1
38.7771685123 93.7782557011 -7.8087061874 0.5140428336 1
42.3327205181 93.7782557011 -8.405598321 0.1620729229 1
45.8882725239 93.7782557011 -8.3239776273 0.236724355 1
49.4438245296 93.7782557011 -9.041536649 0.2145865317 1
52.9993765354 93.7782557011 0 -0 0
-124.778223753 90.2227036953 -8.7495779954 -0.7860774462 1
-121.2226717472 90.2227036953 -8.6748148718 -0.4592710522 1
-117.6671197414 90.2227036953 -9.0137712937 -0.5484624233 1
-114.1115677357 90.2227036953 -8.7969051103 -1.825256368 1
-110.5560157299 90.2227036953 -9.7800378224 -2.037515994 1
-107.0004637241 90.2227036953 -10.0923329162 -1.9580518049 1
-103.4449117184 90.2227036953 -10.5225527292 -2.4483945665 1
-99.8893597126 90.2227036953 -10.4733984563 -2.2384002727 1
-96.3338077068 90.2227036953 -11.3715375352 -2.1395304057 1
-92.7782557011 90.2227036953 -12.1907937935 -1.470136185 1
-89.2227036953 90.2227036953 -12.2842380323 -0.5104930494 1
-85.6671516895 90.2227036953 -11.7458013509 0.0536505708 1
-82.1115996838 90.2227036953 -12.3132463133 0.3735177739 1
-78.556047678 90.2227036953 -11.7310867149 0.5037844011 1
-75.0004956722 90.2227036953 -12.0326458236 0.6556189387 1
-71.4449436665 90.2227036953 -11.8852123597 0.5798577516 1
-67.8893916607 90.2227036953 0 -0 0
-64.3338396549 90.2227036953 -11.4024087727 0.7787888615 1
-60.7782876492 90.2227036953 -11.6144464477 1.1399389523 1
-57.2227356434 90.2227036953 -11.1105646745 1.0851485557 1
-53.6671836376 90.2227036953 -11.5131902493 1.0318244677 1
-50.1116316319 90.2227036953 -11.1080365809 0.9219673097 1
-46.5560796261 90.2227036953 -11.3604500084 1.2069996599 1
-43.0005276203 90.2227036953 -10.7033676249 1.077464755 1
-39.4449756145 90.2227036953 -9.7517941985 1.1284891441 1
-35.8894236088 90.2227036953 0 -0 0
-32.333871603 90.2227036953 -10.2346665187 1.732951955 1
-28.7783195972 90.2227036953 -10.0342218461 0.8320399204 1
-25.2227675915 90.2227036953 -10.6391994402 2.0515475936 1
-21.6672155857 90.2227036953 -10.8816229243 1.5379357746 1
-18.1116635799 90.2227036953 -9.7440058659 1.2947977514 1
-14.5561115742 90.2227036953 -9.2940925547 1.3396504706 1
-11.0005595684 90.2227036953 -10.2678675258 1.7282408659 1
-7.4450075626 90.2227036953 -10.11628501 0.7509447494 1
-3.8894555569 90.2227036953 -9.6212870049 1.5527205757 1
-0.3339035511 90.2227036953 -9.6575065458 0.8819345073 1
3.2216484547 90.2227036953 -9.3189081094 1.5367128961 1
6.7772004604 90.2227036953 -8.8700988254 1.0022491377 1
10.3327524662 90.2227036953 -9.2894602223 1.6337312622 1