TITLE = "B00020"
VARIABLES = "x", "y", "Vx", "Vy", "isValid"
ZONE T="Frame 0", I=51, J=39, F=POINT
-124.778223753 125.778223753 -9.7513431367 -0.7215040219 1
-121.2226717472 125.778223753 -10.6226268595 -0.3403955235 1
-117.6671197414 125.778223753 -10.3010542135 -0.396126706 1
-114.1115677357 125.778223753 -10.5132336507 -0.4534444802 1
-110.5560157299 125.778223753 -10.6401316344 -0.5552312132 1
-107.0004637241 125.778223753 -10.9892362292 0.2118157239 1
-103.4449117184 125.778223753 -10.8268633145 -0.5274415148 1
-99.8893597126 125.778223753 -10.643080719 -0.2118830252 1
-96.3338077068 125.778223753 -10.6513158174 -0.211788517 1
-92.7782557011 125.778223753 -10.9000419942 -0.3267147497 1
-89.2227036953 125.778223753 -10.8347404274 0.4423540895 1
-85.6671516895 125.778223753 -10.9833795864 0.2402397726 1
-82.1115996838 125.778223753 -11.2201103851 0.5935084547 1
-78.556047678 125.778223753 -11.4578070287 0.1916239099 1
-75.0004956722 125.778223753 -10.5390694642 0.3370089807 1
-71.4449436665 125.778223753 -10.7238594309 -0.115288514 1
-67.8893916607 125.778223753 0 -0 0
-64.3338396549 125.778223753 0 -0 0
-60.7782876492 125.778223753 0 -0 0
-57.2227356434 125.778223753 -10.6164652131 0.5411423359 1
-53.6671836376 125.778223753 0 -0 0
-50.1116316319 125.778223753 -10.2475554286 0.7629601746 1
-46.5560796261 125.778223753 -9.9172422086 0.4304890181 1
-43.0005276203 125.778223753 -9.9165047585 0.670597052 1
-39.4449756145 125.778223753 -10.7479303758 0.8967321959 1
-35.8894236088 125.778223753 -10.2278862733 0.4635568546 1
-32.333871603 125.778223753 -9.8535293815 1.1019266201 1
-28.7783195972 125.778223753 -10.8918534339 0.2635560841 1
-25.2227675915 125.778223753 -9.9283569424 0.5534097829 1
-21.6672155857 125.778223753 -10.8412163851 1.0099300746 1
-18.1116635799 125.778223753 -9.8428184553 1.0691824025 1
-14.5561115742 125.778223753 -9.5146288054 0.5167821386 1
-11.0005595684 125.778223753 -9.9967894504 1.1682269664 1
-7.4450075626 125.778223753 -9.7572828321 0.8412043492 1
-3.8894555569 125.778223753 -10.1078637591 1.2948020472 1
-0.3339035511 125.778223753 -8.9143214901 1.115605962 1
3.2216484547 125.778223753 -9.7449709948 0.9123904816 1
6.7772004604 125.778223753 -9.4594002345 0.5965584911 1
10.3327524662 125.778223753 -9.0747247686 0.4203093425 1
13.888304472 125.778223753 0 -0 0
17.4438564777 125.778223753 0 -0 0
20.9994084835 125.778223753 0 -0 0
24.5549604893 125.778223753 0 -0 0
28.110512495 125.778223753 0 -0 0
31.6660645008 125.778223753 0 -0 0
35.2216165066 125.778223753 0 -0 0
38.7771685123 125.778223753 0 -0 0
42.3327205181 125.778223753 -9.4150558548 0.797514367 1
45.8882725239 125.778223753 0 -0 0
49.4438245296 125.778223753 -9.5270279911 0.5610577851 1
52.9993765354 125.778223753 0 -0 0
-124.778223753 122.2226717472 -10.4402847977 -0.2159884029 1
-121.2226717472 122.2226717472 -10.1398075211 -0.4230443517 1
-117.6671197414 122.2226717472 -10.5165063541 -0.5620716001 1
-114.1115677357 122.2226717472 -10.4107581537 -0.1065336206 1
-110.5560157299 122.2226717472 -10.2639253895 -0.3642731563 1
-107.0004637241 122.2226717472 -11.1998527017 -0.4710716862 1
-103.4449117184 122.2226717472 -10.7104142115 0.1484064685 1
-99.8893597126 122.2226717472 -10.8733627669 -0.4398711021 1
-96.3338077068 122.2226717472 -10.8907429629 -0.1399078927 1
-92.7782557011 122.2226717472 -10.4396389918 -0.4402548625 1
-89.2227036953 122.2226717472 -10.885209223 -0.2337559392 1
-85.6671516895 122.2226717472 -11.2293485589 -0.3751530516 1
-82.1115996838 122.2226717472 -10.9938127158 0.0369627187 1
-78.556047678 122.2226717472 -11.2303129719 0.6131962252 1
-75.0004956722 122.2226717472 -10.5084953546 0.3899278291 1
-71.4449436665 122.2226717472 -11.2451063646 0.8069966869 1
-67.8893916607 122.2226717472 0 -0 0
-64.3338396549 122.2226717472 0 -0 0
-60.7782876492 122.2226717472 0 -0 0
-57.2227356434 122.2226717472 -9.92925477 0.4331137678 1
-53.6671836376 122.2226717472 -10.6027708358 0.453228257 1
-50.1116316319 122.2226717472 -10.8782893633 0.9991203445 1
-46.5560796261 122.2226717472 -10.6690196323 0.890559094 1
-43.0005276203 122.2226717472 -10.9589714191 0.8667774013 1
-39.4449756145 122.2226717472 -10.3577261819 1.3861141244 1
-35.8894236088 122.2226717472 -11.0544060573 0.8553075459 1
-32.333871603 122.2226717472 -10.0624855172 0.555778215 1
-28.7783195972 122.2226717472 -9.9674446631 2.0773067982 1
-25.2227675915 122.2226717472 -9.8099553865 1.8834705379 1
-21.6672155857 122.2226717472 -9.7859546067 1.1550359168 1
-18.1116635799 122.2226717472 -10.0435437885 1.5137259313 1
-14.5561115742 122.2226717472 -10.371449914 1.3800326668 1
-11.0005595684 122.2226717472 -10.1268341267 0.8348765975 1
-7.4450075626 122.2226717472 -10.4314010295 0.8036760134 1
-3.8894555569 122.2226717472 -9.7546638102 1.134415952 1
-0.3339035511 122.2226717472 -10.1181637179 0.6775018763 1
3.2216484547 122.2226717472 -9.6771585177 0.5619269739 1
6.7772004604 122.2226717472 -9.8167828859 0.9066140276 1
10.3327524662 122.2226717472 -9.5836856401 0.9617165876 1
13.888304472 122.2226717472 0 -0 0
17.4438564777 122.2226717472 0 -0 0
20.9994084835 122.2226717472 0 -0 0
24.5549604893 122.2226717472 0 -0 0
28.110512495 122.2226717472 0 -0 0
31.6660645008 122.2226717472 0 -0 0
35.2216165066 122.2226717472 0 -0 0
38.7771685123 122.2226717472 -9.1452908702 0.9175426089 1
42.3327205181 122.2226717472 0 -0 0
45.8882725239 122.2226717472 -9.4179684248 1.026486188 1
49.4438245296 122.2226717472 -9.7475857209 0.3179512647 1
52.9993765354 122.2226717472 0 -0 0
-124.778223753 118.6671197414 -9.8465586878 -0.1621574075 1
-121.2226717472 118.6671197414 -10.2321835312 -0.3572351614 1
-117.6671197414 118.6671197414 -10.436966988 -0.5803975937 1
-114.1115677357 118.6671197414 -10.3108816314 -0.149060866 1
-110.5560157299 118.6671197414 -10.7789727304 -0.5916039718 1
-107.0004637241 118.6671197414 -10.8624177182 -0.2284448663 1
-103.4449117184 118.6671197414 -10.4928986424 0.0008691888 1
-99.8893597126 118.6671197414 -10.8243337889 0.1177013363 1
-96.3338077068 118.6671197414 -11.0216933424 -0.1970495381 1
-92.7782557011 118.6671197414 -10.7397232003 -0.5805121491 1
-89.2227036953 118.6671197414 -10.2941808919 0.0573693241 1
-85.6671516895 118.6671197414 -11.03849217 0.1216148337 1
-82.1115996838 118.6671197414 -10.8878497241 0.0288736784 1
-78.556047678 118.6671197414 -10.9315160793 0.3083959158 1
-75.0004956722 118.6671197414 -10.7243971251 0.6344634277 1
-71.4449436665 118.6671197414 -10.6593597515 0.4030802164 1
-67.8893916607 118.6671197414 0 -0 0
-64.3338396549 118.6671197414 0 -0 0
-60.7782876492 118.6671197414 0 -0 0
-57.2227356434 118.6671197414 -10.7968333429 0.4187671409 1
-53.6671836376 118.6671197414 -10.1092255359 0.7179370544 1
-50.1116316319 118.6671197414 -10.4712548391 1.121949465 1
-46.5560796261 118.6671197414 -10.8255072654 0.7201565645 1
-43.0005276203 118.6671197414 -10.0938822774 0.6436264245 1
-39.4449756145 118.6671197414 -11.0470129408 0.7915789674 1
-35.8894236088 118.6671197414 -10.5807683311 0.7204085863 1
-32.333871603 118.6671197414 -9.8831433739 0.7192086189 1
-28.7783195972 118.6671197414 -10.1076804705 0.3782030881 1
-25.2227675915 118.6671197414 -10.0470062243 1.172633052 1
-21.6672155857 118.6671197414 -10.1666535697 0.9742589675 1
-18.1116635799 118.6671197414 -9.8439783283 1.1616658082 1
-14.5561115742 118.6671197414 -9.944735495 0.1865705866 1
-11.0005595684 118.6671197414 -9.5852307055 0.9330376533 1
-7.4450075626 118.6671197414 -9.687644629 1.1412463153 1
-3.8894555569 118.6671197414 -10.5137341144 0.806350881 1
-0.3339035511 118.6671197414 -10.1143032022 1.0448637315 1
3.2216484547 118.6671197414 -9.3793260381 1.0716109761 1
6.7772004604 118.6671197414 -10.4671838281 0.9612111121 1
10.3327524662 118.6671197414 0 -0 0
13.888304472 118.6671197414 0 -0 0
17.4438564777 118.6671197414 0 -0 0
20.9994084835 118.6671197414 0 -0 0
24.5549604893 118.6671197414 0 -0 0
28.110512495 118.6671197414 0 -0 0
31.6660645008 118.6671197414 0 -0 0
35.2216165066 118.6671197414 0 -0 0
38.7771685123 118.6671197414 -9.5620833631 0.637542103 1
42.3327205181 118.6671197414 0 -0 0
45.8882725239 118.6671197414 -9.9125440069 0.3356500678 1
49.4438245296 118.6671197414 -9.3943986595 1.2267633233 1
52.9993765354 118.6671197414 0 -0 0
-124.778223753 115.1115677357 -10.7640526107 -0.7529065099 1
-121.2226717472 115.1115677357 -10.6853222919 -0.5930230263 1
-117.6671197414 115.1115677357 -10.6653352455 -0.3931625861 1
-114.1115677357 115.1115677357 -10.9042053655 -0.4545886019 1
-110.5560157299 115.1115677357 -10.9451159484 -0.49275272 1
-107.0004637241 115.1115677357 -10.6866862166 -0.5799637153 1
-103.4449117184 115.1115677357 -11.0989609326 0.076429904 1
-99.8893597126 115.1115677357 -11.0116174826 -0.5373777604 1
-96.3338077068 115.1115677357 -11.2153749529 -0.0187942387 1
-92.7782557011 115.1115677357 -11.1202066559 0.137308918 1
-89.2227036953 115.1115677357 -10.7924422928 -0.241413965 1
-85.6671516895 115.1115677357 -10.9348367528 -0.3121547635 1
-82.1115996838 115.1115677357 -11.3333934644 0.378180177 1
-78.556047678 115.1115677357 -11.5665257928 0.2557448405 1
-75.0004956722 115.1115677357 -11.1241495082 0.3569874355 1
-71.4449436665 115.1115677357 -10.8786631002 0.4210782953 1
-67.8893916607 115.1115677357 0 -0 0
-64.3338396549 115.1115677357 0 -0 0
-60.7782876492 115.1115677357 -9.9365204437 0.8645077732 1
-57.2227356434 115.1115677357 -10.763502745 0.5665807854 1
-53.6671836376 115.1115677357 -10.2518369351 1.2871769561 1
-50.1116316319 115.1115677357 -10.9901233173 0.8169515476 1
-46.5560796261 115.1115677357 -10.8944874912 1.2599099166 1
-43.0005276203 115.1115677357 -10.3401132953 0.721872031 1
-39.4449756145 115.1115677357 -10.8193312996 0.9073471819 1
-35.8894236088 115.1115677357 -9.9163859073 1.1919671328 1
-32.333871603 115.1115677357 -10.448226348 1.2598139765 1
-28.7783195972 115.1115677357 -10.5144901798 1.4943173894 1
-25.2227675915 115.1115677357 -10.0720064996 0.8299335337 1
-21.6672155857 115.1115677357 -10.1494287394 1.0253850246 1
-18.1116635799 115.1115677357 -10.3800215187 0.5276276673 1
-14.5561115742 115.1115677357 -10.7616698593 0.928799105 1
-11.0005595684 115.1115677357 0 -0 0
-7.4450075626 115.1115677357 -9.869611522 0.6506286209 1
-3.8894555569 115.1115677357 -9.6991660343 1.3665623884 1
-0.3339035511 115.1115677357 -8.9057871158 1.0770394682 1
3.2216484547 115.1115677357 -9.4757501482 0.9872667286 1
6.7772004604 115.1115677357 -9.7077720057 0.5832729333 1
10.3327524662 115.1115677357 0 -0 0
13.888304472 115.1115677357 0 -0 0
17.4438564777 115.1115677357 0 -0 0
20.9994084835 115.1115677357 0 -0 0
24.5549604893 115.1115677357 0 -0 0
28.110512495 115.1115677357 0 -0 0
31.6660645008 115.1115677357 0 -0 0
35.2216165066 115.1115677357 -9.2108723817 0.5092529876 1
38.7771685123 115.1115677357 -9.7733062631 0.3245410618 1
42.3327205181 115.1115677357 -9.5099334676 0.931860597 1
45.8882725239 115.1115677357 -9.388068044 -0.071024323 1
49.4438245296 115.1115677357 -9.3187548917 1.1963861058 1
52.9993765354 115.1115677357 0 -0 0
-124.778223753 111.5560157299 -10.6973219658 -0.7741522333 1
-121.2226717472 111.5560157299 -10.9195722511 -0.698591518 1
-117.6671197414 111.5560157299 -10.8134338464 -0.6303723694 1
-114.1115677357 111.5560157299 -10.8824391312 -0.5509840732 1
-110.5560157299 111.5560157299 -10.9166467936 -0.5416521072 1
-107.0004637241 111.5560157299 -10.8875518801 -0.7518024826 1
-103.4449117184 111.5560157299 -10.8389582125 -0.3375173201 1
-99.8893597126 111.5560157299 -11.1414745744 -0.4245077964 1
-96.3338077068 111.5560157299 -10.6604816781 -0.4884769412 1
-92.7782557011 111.5560157299 -11.124055716 -0.3565564209 1
-89.2227036953 111.5560157299 -10.9620071362 -0.334186623 1
-85.6671516895 111.5560157299 -11.2577346611 0.4362210819 1
-82.1115996838 111.5560157299 -10.7445796315 0.2140438257 1
-78.556047678 111.5560157299 -11.3594977669 0.2228359495 1
-75.0004956722 111.5560157299 -11.498903048 0.1543776666 1
-71.4449436665 111.5560157299 -11.2646924672 0.2995966322 1
-67.8893916607 111.5560157299 0 -0 0
-64.3338396549 111.5560157299 0 -0 0
-60.7782876492 111.5560157299 -11.1115978207 0.9489651441 1
-57.2227356434 111.5560157299 -10.8973792981 0.3729779317 1
-53.6671836376 111.5560157299 -10.915821995 0.9725177261 1
-50.1116316319 111.5560157299 -10.8504373755 1.3302368839 1
-46.5560796261 111.5560157299 -10.9109999303 0.511884897 1
-43.0005276203 111.5560157299 -10.2107244485 1.1348040083 1
-39.4449756145 111.5560157299 -10.0474272152 1.039347891 1
-35.8894236088 111.5560157299 -10.5234770478 0.8966835099 1
-32.333871603 111.5560157299 -11.1828892009 1.2521072647 1
-28.7783195972 111.5560157299 -10.7748422937 1.3343250783 1
-25.2227675915 111.5560157299 -10.2863696483 0.7383894819 1
-21.6672155857 111.5560157299 -10.5995976523 1.2956268458 1
-18.1116635799 111.5560157299 -9.7125403725 1.1077603518 1
-14.5561115742 111.5560157299 -10.0190547165 1.2534762012 1
-11.0005595684 111.5560157299 0 -0 0
-7.4450075626 111.5560157299 -9.9895309364 1.2143985042 1
-3.8894555569 111.5560157299 -9.4074035567 1.8559543406 1
-0.3339035511 111.5560157299 -10.3811685043 1.5057815171 1
3.2216484547 111.5560157299 -9.4281123019 0.891051682 1
6.7772004604 111.5560157299 -9.5424013204 0.5342589907 1
10.3327524662 111.5560157299 -9.4541220963 1.0324645458 1
13.888304472 111.5560157299 0 -0 0
17.4438564777 111.5560157299 0 -0 0
20.9994084835 111.5560157299 0 -0 0
24.5549604893 111.5560157299 0 -0 0
28.110512495 111.5560157299 0 -0 0
31.6660645008 111.5560157299 0 -0 0
35.2216165066 111.5560157299 -9.1888147472 0.8710632037 1
38.7771685123 111.5560157299 -9.390635516 -0.0415105665 1
42.3327205181 111.5560157299 -9.3184656394 0.4372334649 1
45.8882725239 111.5560157299 0 -0 0
49.4438245296 111.5560157299 -9.6187295565 0.2429590304 1
52.9993765354 111.5560157299 0 -0 0
-124.778223753 108.0004637241 -10.6985190693 -0.8333945375 1
-121.2226717472 108.0004637241 -10.4312435159 -0.8619560526 1
-117.6671197414 108.0004637241 -10.2833740257 -0.6793906078 1
-114.1115677357 108.0004637241 -11.181255355 -0.0370629547 1
-110.5560157299 108.0004637241 -11.0571439304 -0.7488197474 1
-107.0004637241 108.0004637241 -10.8011041099 -0.43281306 1
-103.4449117184 108.0004637241 -11.1754846288 -0.5059337461 1
-99.8893597126 108.0004637241 -11.0406028525 -0.6694686817 1
-96.3338077068 108.0004637241 -11.2379108561 -0.3502043262 1
-92.7782557011 108.0004637241 -10.9677993415 -0.4864894057 1
-89.2227036953 108.0004637241 -11.4771575769 0.1193924597 1
-85.6671516895 108.0004637241 -10.646806632 0.2636047701 1
-82.1115996838 108.0004637241 -10.8549780636 0.1927866468 1
-78.556047678 108.0004637241 -11.0332176116 0.5279154876 1
-75.0004956722 108.0004637241 -11.6264468376 0.517760155 1
-71.4449436665 108.0004637241 -11.3796480547 0.346408248 1
-67.8893916607 108.0004637241 0 -0 0
-64.3338396549 108.0004637241 0 -0 0
-60.7782876492 108.0004637241 -10.8084965104 0.0663390088 1
-57.2227356434 108.0004637241 -11.4735834497 0.9452879171 1
-53.6671836376 108.0004637241 -10.7311902579 1.0431611525 1
-50.1116316319 108.0004637241 -10.9606876016 1.0935196886 1
-46.5560796261 108.0004637241 -10.8813759143 1.0386634227 1
-43.0005276203 108.0004637241 -11.4042459543 0.6965524326 1
-39.4449756145 108.0004637241 -10.6231788731 0.8904459706 1
-35.8894236088 108.0004637241 -10.8277718817 1.1086782266 1
-32.333871603 108.0004637241 -11.0697872623 0.6673780464 1
-28.7783195972 108.0004637241 -10.3346862352 0.6611104363 1
-25.2227675915 108.0004637241 -10.9494389813 0.8296972633 1
-21.6672155857 108.0004637241 0 -0 0
-18.1116635799 108.0004637241 -10.4310401801 1.154584855 1
-14.5561115742 108.0004637241 -9.7333364661 0.9564112425 1
-11.0005595684 108.0004637241 -9.2062586646 0.8665669058 1
-7.4450075626 108.0004637241 -9.9900621869 0.8635583957 1
-3.8894555569 108.0004637241 -9.7218494274 1.7540086621 1
-0.3339035511 108.0004637241 -9.9397394493 0.6769190759 1
3.2216484547 108.0004637241 -9.7345965751 1.2773237632 1
6.7772004604 108.0004637241 0 -0 0
10.3327524662 108.0004637241 -9.8252399354 0.9118248646 1
13.888304472 108.0004637241 0 -0 0
17.4438564777 108.0004637241 0 -0 0
20.9994084835 108.0004637241 0 -0 0
24.5549604893 108.0004637241 0 -0 0
28.110512495 108.0004637241 0 -0 0
31.6660645008 108.0004637241 0 -0 0
35.2216165066 108.0004637241 -9.5230786951 0.8386769716 1
38.7771685123 108.0004637241 0 -0 0
42.3327205181 108.0004637241 -8.9674694492 0.657932957 1
45.8882725239 108.0004637241 -9.2462298934 0.7917064102 1
49.4438245296 108.0004637241 -9.4213005538 0.553358233 1
52.9993765354 108.0004637241 0 -0 0
-124.778223753 104.4449117184 -10.9562557411 -1.2402880154 1
-121.2226717472 104.4449117184 -11.1326108535 -0.7538057695 1
-117.6671197414 104.4449117184 -10.6211626988 -0.5625083424 1
-114.1115677357 104.4449117184 -10.9085190908 -0.9645718799 1
-110.5560157299 104.4449117184 -11.1167900423 -0.7234743741 1
-107.0004637241 104.4449117184 -10.3963356339 -0.50559008 1
-103.4449117184 104.4449117184 -11.466786021 -0.734216803 1
-99.8893597126 104.4449117184 -11.0726747733 -0.5465264378 1
-96.3338077068 104.4449117184 -10.9426114818 0.0010410218 1
-92.7782557011 104.4449117184 -11.0628237284 -0.4944953934 1
-89.2227036953 104.4449117184 -11.3482026085 -0.325473256 1
-85.6671516895 104.4449117184 -11.2384292191 0.1440519329 1
-82.1115996838 104.4449117184 -11.5708065834 0.2406178053 1
-78.556047678 104.4449117184 -11.4598711731 0.2507416352 1
-75.0004956722 104.4449117184 -11.5238560693 0.4113239064 1
-71.4449436665 104.4449117184 -11.5936482062 0.5650815421 1
-67.8893916607 104.4449117184 0 -0 0
-64.3338396549 104.4449117184 0 -0 0
-60.7782876492 104.4449117184 -11.3099103316 0.9813642637 1
-57.2227356434 104.4449117184 -11.5798478652 1.1886478912 1
-53.6671836376 104.4449117184 -11.4385151902 1.3714381509 1
-50.1116316319 104.4449117184 -10.5996678175 0.6612221278 1
-46.5560796261 104.4449117184 -11.0940078452 1.4825095957 1
-43.0005276203 104.4449117184 -11.182736699 1.3251993119 1
-39.4449756145 104.4449117184 0 -0 0
-35.8894236088 104.4449117184 -9.2535671642 1.3950508744 1
-32.333871603 104.4449117184 -10.7604498447 1.9651556691 1
-28.7783195972 104.4449117184 -10.4425816326 1.7049560571 1
-25.2227675915 104.4449117184 -9.7382208203 1.1818561904 1
-21.6672155857 104.4449117184 -10.1017966209 1.2165707602 1
-18.1116635799 104.4449117184 -9.4816483173 1.1204215829 1
-14.5561115742 104.4449117184 -10.002648957 1.5881983706 1
-11.0005595684 104.4449117184 -10.0285513558 1.1873247768 1
-7.4450075626 104.4449117184 0 -0 0
-3.8894555569 104.4449117184 -9.4711464547 2.1019619755 1
-0.3339035511 104.4449117184 -9.9093636638 0.9214790175 1
3.2216484547 104.4449117184 -9.9757842933 1.2412044583 1
6.7772004604 104.4449117184 -9.2229493805 1.2012461169 1
10.3327524662 104.4449117184 -9.5929503048 1.1338174003 1
13.888304472 104.4449117184 0 -0 0
17.4438564777 104.4449117184 0 -0 0
20.9994084835 104.4449117184 0 -0 0
24.5549604893 104.4449117184 0 -0 0
28.110512495 104.4449117184 0 -0 0
31.6660645008 104.4449117184 0 -0 0
35.2216165066 104.4449117184 -9.4105667166 0.6408269779 1
38.7771685123 104.4449117184 -9.3321349577 0.8490241844 1
42.3327205181 104.4449117184 -9.124855626 0.8452610409 1
45.8882725239 104.4449117184 -9.2187724057 0.6702605456 1
49.4438245296 104.4449117184 -8.4590441241 0.5367878002 1
52.9993765354 104.4449117184 0 -0 0
-124.778223753 100.8893597126 -11.0464129571 -1.2726985906 1
-121.2226717472 100.8893597126 -10.3021510811 -0.8100438594 1
-117.6671197414 100.8893597126 -11.1358885687 -0.9576169377 1
-114.1115677357 100.8893597126 -10.940187204 -0.9423667554 1
-110.5560157299 100.8893597126 -11.0247720177 -0.8044163274 1
-107.0004637241 100.8893597126 -10.2564105579 -0.926576731 1
-103.4449117184 100.8893597126 -10.8827892411 -0.8668375429 1
-99.8893597126 100.8893597126 -11.2924614024 -0.3092192824 1
-96.3338077068 100.8893597126 -11.5707693529 -0.4417183072 1
-92.7782557011 100.8893597126 -11.3283107862 -0.648306011 1
-89.2227036953 100.8893597126 -11.042664133 0.0971243298 1
-85.6671516895 100.8893597126 -11.4958587393 0.0209979974 1
-82.1115996838 100.8893597126 -11.1737956532 0.3478373261 1
-78.556047678 100.8893597126 -11.7036270792 0.3968970908 1
-75.0004956722 100.8893597126 -11.3153481313 0.3534075805 1
-71.4449436665 100.8893597126 -12.0310592319 0.6456583502 1
-67.8893916607 100.8893597126 0 -0 0
-64.3338396549 100.8893597126 0 -0 0
-60.7782876492 100.8893597126 -11.8158934796 0.8929175024 1
-57.2227356434 100.8893597126 -11.677316577 0.3438937578 1
-53.6671836376 100.8893597126 -10.9476870002 0.7484775133 1
-50.1116316319 100.8893597126 -10.9174923553 0.7299882782 1
-46.5560796261 100.8893597126 -11.1127584097 1.7376100623 1
-43.0005276203 100.8893597126 -10.9504148497 0.7269267863 1
-39.4449756145 100.8893597126 -10.6478498018 1.1229733035 1
-35.8894236088 100.8893597126 -11.2058783136 0.8646080092 1
-32.333871603 100.8893597126 -10.0379205523 1.3087377067 1
-28.7783195972 100.8893597126 0 -0 0
-25.2227675915 100.8893597126 -10.2453158713 0.6952579571 1
-21.6672155857 100.8893597126 -10.3933428751 0.9075834524 1
-18.1116635799 100.8893597126 -10.4358729844 0.9171230499 1
-14.5561115742 100.8893597126 -10.9661146618 0.5431198478 1
-11.0005595684 100.8893597126 -9.8776046222 1.2129622663 1
-7.4450075626 100.8893597126 0 -0 0
-3.8894555569 100.8893597126 -9.8965191441 1.2679044488 1
-0.3339035511 100.8893597126 -9.8990407939 1.8213428706 1
3.2216484547 100.8893597126 -9.8618203256 1.3528314966 1
6.7772004604 100.8893597126 -9.3404516768 1.0124431328 1
10.3327524662 100.8893597126 -9.4583978751 1.3907536165 1
13.888304472 100.8893597126 0 -0 0
17.4438564777 100.8893597126 0 -0 0
20.9994084835 100.8893597126 0 -0 0
24.5549604893 100.8893597126 0 -0 0
28.110512495 100.8893597126 0 -0 0
31.6660645008 100.8893597126 0 -0 0
35.2216165066 100.8893597126 -9.2175366397 0.9695865408 1
38.7771685123 100.8893597126 -8.8566156596 0.4841940027 1
42.3327205181 100.8893597126 -8.9468308692 0.0223697979 1
45.8882725239 100.8893597126 -9.5072600318 1.0228662386 1
49.4438245296 100.8893597126 -9.451563216 0.6758981013 1
52.9993765354 100.8893597126 0 -0 0
-124.778223753 97.3338077068 -10.9037578837 -1.0848163452 1
-121.2226717472 97.3338077068 -10.8654369679 -0.6427686913 1
-117.6671197414 97.3338077068 -10.5927336384 -1.0538448717 1
-114.1115677357 97.3338077068 -10.7787865779 -0.8492232244 1
-110.5560157299 97.3338077068 -10.9280779865 -0.6773601141 1
-107.0004637241 97.3338077068 -11.2251608446 -0.9283594988 1
-103.4449117184 97.3338077068 -11.8020695116 -0.8344613343 1
-99.8893597126 97.3338077068 -11.6173196393 -0.8445393421 1
-96.3338077068 97.3338077068 -11.3359616523 -0.5134557374 1
-92.7782557011 97.3338077068 -11.228039048 -0.6932718535 1
-89.2227036953 97.3338077068 -11.6658445737 -0.6695989884 1
-85.6671516895 97.3338077068 -11.3622263324 0.5809259803 1
-82.1115996838 97.3338077068 -11.8701325786 -0.0167078992 1
-78.556047678 97.3338077068 -11.9009658696 0.248449096 1
-75.0004956722 97.3338077068 -11.682551041 0.6027931666 1
-71.4449436665 97.3338077068 -11.187403398 0.2590769695 1
-67.8893916607 97.3338077068 0 -0 0
-64.3338396549 97.3338077068 0 -0 0
-60.7782876492 97.3338077068 -10.7474206045 0.224750456 1
-57.2227356434 97.3338077068 -11.2656425608 1.0202615361 1
-53.6671836376 97.3338077068 -11.385393722 1.623491445 1
-50.1116316319 97.3338077068 -11.3578553295 1.0550763418 1
-46.5560796261 97.3338077068 -10.9187904107 0.857378134 1
-43.0005276203 97.3338077068 -11.1579211442 0.9483350896 1
-39.4449756145 97.3338077068 -11.0110812203 0.4657663411 1
-35.8894236088 97.3338077068 -11.0544461517 1.0912414689 1
-32.333871603 97.3338077068 -10.2681381628 1.7374496848 1
-28.7783195972 97.3338077068 -10.0538838417 1.4937145419 1
-25.2227675915 97.3338077068 -10.3212245484 0.8768912076 1
-21.6672155857 97.3338077068 -9.9279073126 1.3755807591 1
-18.1116635799 97.3338077068 -9.8628685072 1.9427214339 1
-14.5561115742 97.3338077068 -9.5462074222 0.9521726942 1
-11.0005595684 97.3338077068 -9.3028145134 0.8805254764 1
-7.4450075626 97.3338077068 -9.4680964183 0.7944700583 1
-3.8894555569 97.3338077068 -9.6774291548 1.5350733225 1
-0.3339035511 97.3338077068 -9.7426168822 1.7106007724 1
3.2216484547 97.3338077068 -9.6505358521 1.0072208403 1
6.7772004604 97.3338077068 -9.2254481192 1.2241700763 1
10.3327524662 97.3338077068 -9.4361841589 1.2743209809 1
13.888304472 97.3338077068 -9.5013761822 0.9069548298 1
17.4438564777 97.3338077068 0 -0 0
20.9994084835 97.3338077068 0 -0 0
24.5549604893 97.3338077068 0 -0 0
28.110512495 97.3338077068 0 -0 0
31.6660645008 97.3338077068 0 -0 0
35.2216165066 97.3338077068 -9.2904267831 0.8796949501 1
38.7771685123 97.3338077068 -8.7544594857 0.4619473518 1
42.3327205181 97.3338077068 -9.5819787652 0.6459862649 1
45.8882725239 97.3338077068 -9.2426056482 0.1928854508 1
49.4438245296 97.3338077068 -8.7439647828 0.3756313202 1
52.9993765354 97.3338077068 0 -0 0
-124.778223753 93.7782557011 -10.5140219348 -0.9520652985 1
-121.2226717472 93.7782557011 -10.7813025 -1.0238915091 1
-117.6671197414 93.7782557011 -11.0959560023 -0.6951806322 1
-114.1115677357 93.7782557011 -11.1074129702 -1.0545479553 1
-110.5560157299 93.7782557011 -11.0250891929 -1.4197934002 1
-107.0004637241 93.7782557011 -11.0842076342 -0.9810134379 1
-103.4449117184 93.7782557011 -11.5483802238 -1.1262653382 1
-99.8893597126 93.7782557011 -11.2793584172 -0.8578649943 1
-96.3338077068 93.7782557011 -11.7297793519 -0.2612291783 1
-92.7782557011 93.7782557011 -11.5995585468 -0.3653571364 1
-89.2227036953 93.7782557011 -12.2900903793 -0.0531379355 1
-85.6671516895 93.7782557011 -11.5161257304 -0.164490041 1
-82.1115996838 93.7782557011 -12.0358003918 -0.4367322852 1
-78.556047678 93.7782557011 -12.0731554627 0.3478487816 1
-75.0004956722 93.7782557011 -11.7731371236 0.6613495706 1
-71.4449436665 93.7782557011 -12.0764102668 0.5636696473 1
-67.8893916607 93.7782557011 0 -0 0
-64.3338396549 93.7782557011 0 -0 0
-60.7782876492 93.7782557011 -11.3677772556 0.8019834579 1
-57.2227356434 93.7782557011 -11.972769885 0.6619667376 1
-53.6671836376 93.7782557011 -11.7094192846 1.0053593157 1
-50.1116316319 93.7782557011 -11.1582075326 1.0801711253 1
-46.5560796261 93.7782557011 -10.5407634515 1.1095603029 1
-43.0005276203 93.7782557011 -10.9817901308 1.0361245895 1
-39.4449756145 93.7782557011 -10.0415992113 1.3720109277 1
-35.8894236088 93.7782557011 -9.7915577957 1.4735742777 1
-32.333871603 93.7782557011 -10.0463661462 0.9324834917 1
-28.7783195972 93.7782557011 -9.5356583055 1.1120762249 1
-25.2227675915 93.7782557011 -10.0244431142 1.6346348176 1
-21.6672155857 93.7782557011 -10.0612884137 1.3743464251 1
-18.1116635799 93.7782557011 -10.3853626624 1.9728537893 1
-14.5561115742 93.7782557011 -10.5759169116 1.2332156539 1
-11.0005595684 93.7782557011 -9.1733368861 1.2515044171 1
-7.4450075626 93.7782557011 -10.0094607051 1.9494300821 1
-3.8894555569 93.7782557011 -9.4648945959 1.8593566347 1
-0.3339035511 93.7782557011 -9.9146475297 1.5515850457 1
3.2216484547 93.7782557011 -8.9134222305 1.4733594864 1
6.7772004604 93.7782557011 -9.3572125578 1.2901382122 1
10.3327524662 93.7782557011 -9.3057700416 1.5190985776 1
13.888304472 93.7782557011 -9.2489649026 1.045420757 1
17.4438564777 93.7782557011 0 -0 0
20.9994084835 93.7782557011 0 -0 0
24.5549604893 93.7782557011 0 -0 0
28.110512495 93.7782557011 0 -0 0
31.6660645008 93.7782557011 0 -0 0
35.2216165066 93.7782557011 -8.6194817692 0.7353208302 1
38.7771685123 93.7782557011 -8.8172472783 1.1407394079 1
42.3327205181 93.7782557011 -9.2982938725 0.3088283622 1
45.8882725239 93.7782557011 0 -0 0
49.4438245296 93.7782557011 -8.5682640679 0.19285538 1
52.9993765354 93.7782557011 0 -0 0
-124.778223753 90.2227036953 -11.4928538091 -1.3590361013 1
-121.2226717472 90.2227036953 -11.5231787607 -0.3950856842 1
-117.6671197414 90.2227036953 -10.9809352614 -0.7522707276 1
-114.1115677357 90.2227036953 -10.5838462904 -0.983948919 1
-110.5560157299 90.2227036953 -10.7873395674 -1.0037584046 1
-107.0004637241 90.2227036953 -11.3139176213 -1.5267737867 1
-103.4449117184 90.2227036953 -11.5359302042 -1.9541569226 1
-99.8893597126 90.2227036953 -11.96968405 -1.2938254628 1
-96.3338077068 90.2227036953 -12.6219844632 -0.6296549665 1
-92.7782557011 90.2227036953 -12.2682761749 -0.267334979 1
-89.2227036953 90.2227036953 -12.7583683467 -0.2158666879 1
-85.6671516895 90.2227036953 -12.0544543002 -0.2604745449 1
-82.1115996838 90.2227036953 -12.2102452936 0.1961345271 1
-78.556047678 90.2227036953 -12.0246813622 -0.3362557792 1
-75.0004956722 90.2227036953 -11.8330789315 0.08773795 1
-71.4449436665 90.2227036953 -11.6741899317 0.9667627512 1
-67.8893916607 90.2227036953 0 -0 0
-64.3338396549 90.2227036953 -12.281110671 0.9128658864 1
-60.7782876492 90.2227036953 -11.0805554661 0.1946610588 1
-57.2227356434 90.2227036953 -11.0478112485 1.3882333986 1
-53.6671836376 90.2227036953 -10.651547076 0.7343843402 1
-50.1116316319 90.2227036953 -11.4357064359 1.4492169443 1
-46.5560796261 90.2227036953 -11.1112376873 0.8515916564 1
-43.0005276203 90.2227036953 0 -0 0
-39.4449756145 90.2227036953 -10.840181807 1.3528515438 1
-35.8894236088 90.2227036953 0 -0 0
-32.333871603 90.2227036953 -10.5507405074 2.0612590242 1
-28.7783195972 90.2227036953 -10.3105923791 0.8300409294 1
-25.2227675915 90.2227036953 -10.2330813589 2.4002283336 1
-21.6672155857 90.2227036953 -9.8205861239 2.5058512391 1
-18.1116635799 90.2227036953 -9.9772735129 1.5382522338 1
-14.5561115742 90.2227036953 -10.2200249118 1.6583535048 1
-11.0005595684 90.2227036953 -9.6351009494 1.8128185199 1
-7.4450075626 90.2227036953 -9.4701254801 1.3514926309 1
-3.8894555569 90.2227036953 -10.1776881147 1.7978489982 1
-0.3339035511 90.2227036953 -9.523672951 1.3446851786 1
3.2216484547 90.2227036953 -9.3626525055 1.9992860066 1
6.7772004604 90.2227036953 -9.2770624685 1.6877928003 1
10.3327524662 90.2227036953 -9.1087018883 1.243161923 1
13.888304472 90.2227036953 0 -0 0
17.4438564777 90.2227036953 0 -0 0