TITLE = "B00100"
VARIABLES = "x", "y", "Vx", "Vy", "isValid"
ZONE T="Frame 0", I=51, J=39, F=POINT
-124.778223753 125.778223753 -10.3097503972 -0.3366767702 1
-121.2226717472 125.778223753 -10.2235073947 -0.3385096559 1
-117.6671197414 125.778223753 -9.973370039 0.1136618279 1
-114.1115677357 125.778223753 -10.6755528676 -0.0517575434 1
-110.5560157299 125.778223753 -10.6464164278 -0.2064273262 1
-107.0004637241 125.778223753 -10.5982072367 0.0561822442 1
-103.4449117184 125.778223753 -10.3183935991 -0.0829767428 1
-99.8893597126 125.778223753 -10.8621227382 0.4838603602 1
-96.3338077068 125.778223753 -10.9044459318 0.2750531464 1
-92.7782557011 125.778223753 -10.5623578528 -0.0324077113 1
-89.2227036953 125.778223753 -10.6781983804 -0.2161158458 1
-85.6671516895 125.778223753 -10.7539552718 0.1093559783 1
-82.1115996838 125.778223753 -10.8840364625 0.2274754416 1
-78.556047678 125.778223753 -10.7889283071 0.1120852597 1
-75.0004956722 125.778223753 -10.805520219 0.6364724423 1
-71.4449436665 125.778223753 -11.0689860907 0.2335440118 1
-67.8893916607 125.778223753 0 -0 0
-64.3338396549 125.778223753 0 -0 0
-60.7782876492 125.778223753 0 -0 0
-57.2227356434 125.778223753 -10.0171874641 0.7004344274 1
-53.6671836376 125.778223753 -10.4208204101 0.598979905 1
-50.1116316319 125.778223753 -9.474175012 0.7732787487 1
-46.5560796261 125.778223753 -10.0314123759 0.9108325288 1
-43.0005276203 125.778223753 -10.7138150737 0.5487072854 1
-39.4449756145 125.778223753 -10.851758342 0.9207888215 1
-35.8894236088 125.778223753 -10.4310587954 1.0327781411 1
-32.333871603 125.778223753 -9.9103846384 0.8924463935 1
-28.7783195972 125.778223753 -11.3055830029 0.8841010356 1
-25.2227675915 125.778223753 -10.7967595979 1.5305727288 1
-21.6672155857 125.778223753 -10.597632312 0.8411413437 1
-18.1116635799 125.778223753 -10.0756092656 0.4137811189 1
-14.5561115742 125.778223753 -9.536338478 1.5151020275 1
-11.0005595684 125.778223753 -9.4616183127 1.1253975813 1
-7.4450075626 125.778223753 -9.2433975122 0.3735993945 1
-3.8894555569 125.778223753 -8.9525171109 1.1259574707 1
-0.3339035511 125.778223753 -9.818262082 0.9536561861 1
3.2216484547 125.778223753 -9.8026209796 1.4638743026 1
6.7772004604 125.778223753 -9.3076029274 1.1550473723 1
10.3327524662 125.778223753 0 -0 0
13.888304472 125.778223753 0 -0 0
17.4438564777 125.778223753 0 -0 0
20.9994084835 125.778223753 0 -0 0
24.5549604893 125.778223753 0 -0 0
28.110512495 125.778223753 0 -0 0
31.6660645008 125.778223753 0 -0 0
35.2216165066 125.778223753 0 -0 0
38.7771685123 125.778223753 -9.4875149837 0.8462562406 1
42.3327205181 125.778223753 -9.6440935451 0.8781613402 1
45.8882725239 125.778223753 -9.4109676604 -0.0837098971 1
49.4438245296 125.778223753 -9.6959026385 0.292985356 1
52.9993765354 125.778223753 0 -0 0
-124.778223753 122.2226717472 -10.552060042 -0.3012204544 1
-121.2226717472 122.2226717472 -10.2177839225 -0.2709749756 1
-117.6671197414 122.2226717472 -10.1010477152 -0.2590984487 1
-114.1115677357 122.2226717472 -10.1868324963 -0.2821498509 1
-110.5560157299 122.2226717472 -10.0058278683 -0.2053777127 1
-107.0004637241 122.2226717472 -10.7739859924 -0.241044524 1
-103.4449117184 122.2226717472 -11.0565410829 -0.3816583641 1
-99.8893597126 122.2226717472 -10.7441693802 -0.1695104296 1
-96.3338077068 122.2226717472 -10.3279317648 0.3244680327 1
-92.7782557011 122.2226717472 -10.8865853193 0.154440672 1
-89.2227036953 122.2226717472 -10.5641592359 -0.0121987139 1
-85.6671516895 122.2226717472 -10.8595667217 0.1244171442 1
-82.1115996838 122.2226717472 -10.263565972 0.1286012787 1
-78.556047678 122.2226717472 -10.8664858655 0.381536649 1
-75.0004956722 122.2226717472 -10.8657856458 0.4508669847 1
-71.4449436665 122.2226717472 -10.4565115644 0.2716666036 1
-67.8893916607 122.2226717472 0 -0 0
-64.3338396549 122.2226717472 0 -0 0
-60.7782876492 122.2226717472 0 -0 0
-57.2227356434 122.2226717472 -10.0920594153 0.8858021827 1
-53.6671836376 122.2226717472 -10.7175187917 0.8606257785 1
-50.1116316319 122.2226717472 -9.807301998 0.3451882334 1
-46.5560796261 122.2226717472 -10.4698930623 1.0687112935 1
-43.0005276203 122.2226717472 -10.3218331238 1.0842450003 1
-39.4449756145 122.2226717472 -10.461407374 0.6172428932 1
-35.8894236088 122.2226717472 -10.2195237321 0.6648191661 1
-32.333871603 122.2226717472 -10.3228569623 1.2127947291 1
-28.7783195972 122.2226717472 -11.0983917356 1.5209257356 1
-25.2227675915 122.2226717472 -10.1608542046 1.6149670943 1
-21.6672155857 122.2226717472 -9.7780932452 0.9402217063 1
-18.1116635799 122.2226717472 -10.0405123673 1.4073913506 1
-14.5561115742 122.2226717472 -10.0553114878 0.4332770092 1
-11.0005595684 122.2226717472 -10.6081262989 0.8732354597 1
-7.4450075626 122.2226717472 -9.6754645304 0.9016537806 1
-3.8894555569 122.2226717472 -9.5535461249 0.7826450813 1
-0.3339035511 122.2226717472 -9.5971015046 0.6124745264 1
3.2216484547 122.2226717472 -10.0235051922 0.9518991933 1
6.7772004604 122.2226717472 -9.8448432213 0.8422153002 1
10.3327524662 122.2226717472 0 -0 0
13.888304472 122.2226717472 0 -0 0
17.4438564777 122.2226717472 0 -0 0
20.9994084835 122.2226717472 0 -0 0
24.5549604893 122.2226717472 0 -0 0
28.110512495 122.2226717472 0 -0 0
31.6660645008 122.2226717472 0 -0 0
35.2216165066 122.2226717472 0 -0 0
38.7771685123 122.2226717472 -9.0816883025 0.7290976103 1
42.3327205181 122.2226717472 -9.4182462215 -0.0141733619 1
45.8882725239 122.2226717472 -9.224392778 0.7435688161 1
49.4438245296 122.2226717472 -9.4953276592 0.6369306637 1
52.9993765354 122.2226717472 0 -0 0
-124.778223753 118.6671197414 -10.3633236431 -0.3017545688 1
-121.2226717472 118.6671197414 -10.3540246118 -0.1888731493 1
-117.6671197414 118.6671197414 -10.3163931762 -0.6673866381 1
-114.1115677357 118.6671197414 -10.8353132042 -0.2089833427 1
-110.5560157299 118.6671197414 -10.0673526881 -0.3534576984 1
-107.0004637241 118.6671197414 -10.3875234629 0.300661997 1
-103.4449117184 118.6671197414 -10.958900538 -0.0448684705 1
-99.8893597126 118.6671197414 -10.6826975422 0.228748438 1
-96.3338077068 118.6671197414 -10.5813761904 0.2516480545 1
-92.7782557011 118.6671197414 -10.7136955066 0.0014892197 1
-89.2227036953 118.6671197414 -10.8616709605 0.2743099685 1
-85.6671516895 118.6671197414 -11.0224823425 -0.0770642543 1
-82.1115996838 118.6671197414 -11.0424729687 0.6700658015 1
-78.556047678 118.6671197414 -10.9749490279 0.0932065365 1
-75.0004956722 118.6671197414 -10.9839301681 0.3018777158 1
-71.4449436665 118.6671197414 -11.2787154752 0.3366180606 1
-67.8893916607 118.6671197414 0 -0 0
-64.3338396549 118.6671197414 0 -0 0
-60.7782876492 118.6671197414 0 -0 0
-57.2227356434 118.6671197414 -11.0064052137 0.3612975809 1
-53.6671836376 118.6671197414 -10.8200837851 1.0489590856 1
-50.1116316319 118.6671197414 -10.6056776781 0.7770361645 1
-46.5560796261 118.6671197414 -10.3835054336 0.6976478683 1
-43.0005276203 118.6671197414 -10.1180405709 0.5891195524 1
-39.4449756145 118.6671197414 -10.5073311858 1.2101055421 1
-35.8894236088 118.6671197414 -10.6316874725 1.2486791955 1
-32.333871603 118.6671197414 -9.7192790916 1.8982252683 1
-28.7783195972 118.6671197414 -10.1683103266 1.0943473511 1
-25.2227675915 118.6671197414 -10.1066179696 1.3670134502 1
-21.6672155857 118.6671197414 -9.9680503745 1.6193545645 1
-18.1116635799 118.6671197414 -10.4260369748 0.8019963454 1
-14.5561115742 118.6671197414 -9.7433013505 1.0903937592 1
-11.0005595684 118.6671197414 -9.8528048188 0.8863835511 1
-7.4450075626 118.6671197414 -9.8989477177 0.8845664167 1
-3.8894555569 118.6671197414 -8.7307164554 0.8807560191 1
-0.3339035511 118.6671197414 -9.4420150267 1.0285467525 1
3.2216484547 118.6671197414 -9.8523723723 1.0170181875 1
6.7772004604 118.6671197414 -9.1163055003 1.1008469358 1
10.3327524662 118.6671197414 -9.5871595313 1.0803787569 1
13.888304472 118.6671197414 0 -0 0
17.4438564777 118.6671197414 0 -0 0
20.9994084835 118.6671197414 0 -0 0
24.5549604893 118.6671197414 0 -0 0
28.110512495 118.6671197414 0 -0 0
31.6660645008 118.6671197414 0 -0 0
35.2216165066 118.6671197414 0 -0 0
38.7771685123 118.6671197414 -8.866998671 0.5032116243 1
42.3327205181 118.6671197414 -8.7660481922 0.4754204941 1
45.8882725239 118.6671197414 -9.5729761459 0.3865942682 1
49.4438245296 118.6671197414 -9.9324136341 0.3465457144 1
52.9993765354 118.6671197414 0 -0 0
-124.778223753 115.1115677357 -10.2267736544 -0.3512539397 1
-121.2226717472 115.1115677357 -10.8529726288 -0.6249581967 1
-117.6671197414 115.1115677357 -10.3311292912 -0.5795599077 1
-114.1115677357 115.1115677357 -10.2114003251 -0.5134772165 1
-110.5560157299 115.1115677357 -10.8276000486 -0.1841935628 1
-107.0004637241 115.1115677357 -10.6229468985 -0.0933769376 1
-103.4449117184 115.1115677357 -11.1664154242 0.115930024 1
-99.8893597126 115.1115677357 -11.0508211906 -0.1859577154 1
-96.3338077068 115.1115677357 -11.2543388106 -0.1969593257 1
-92.7782557011 115.1115677357 -10.7567217837 0.2247561838 1
-89.2227036953 115.1115677357 -10.9507799949 -0.1149004577 1
-85.6671516895 115.1115677357 -10.3077055841 0.0648913154 1
-82.1115996838 115.1115677357 -11.1633252933 0.2958793108 1
-78.556047678 115.1115677357 -11.0148028376 0.2672547903 1
-75.0004956722 115.1115677357 -10.6501065424 0.8290972796 1
-71.4449436665 115.1115677357 -10.9000391303 0.3472359105 1
-67.8893916607 115.1115677357 0 -0 0
-64.3338396549 115.1115677357 0 -0 0
-60.7782876492 115.1115677357 -11.9455830343 0.6021129941 1
-57.2227356434 115.1115677357 -10.5991165198 0.6434689109 1
-53.6671836376 115.1115677357 -10.8760311908 0.8863534803 1
-50.1116316319 115.1115677357 -10.6567879837 0.7452227091 1
-46.5560796261 115.1115677357 -10.3850948892 1.2533473265 1
-43.0005276203 115.1115677357 -11.5406377135 0.6154057117 1
-39.4449756145 115.1115677357 -10.9911822384 1.2385782767 1
-35.8894236088 115.1115677357 -10.735260553 1.1272261713 1
-32.333871603 115.1115677357 -10.0986993303 0.7040200101 1
-28.7783195972 115.1115677357 -10.5425082729 1.0473424231 1
-25.2227675915 115.1115677357 -10.7614085298 0.6124730945 1
-21.6672155857 115.1115677357 -10.1297123301 1.8428792782 1
-18.1116635799 115.1115677357 -10.4094121282 0.8705505685 1
-14.5561115742 115.1115677357 0 -0 0
-11.0005595684 115.1115677357 0 -0 0
-7.4450075626 115.1115677357 -10.4401143966 0.6941066757 1
-3.8894555569 115.1115677357 -8.9723323242 0.6274569355 1
-0.3339035511 115.1115677357 -9.8089601868 1.3296698348 1
3.2216484547 115.1115677357 -8.8834173179 0.6135642343 1
6.7772004604 115.1115677357 -9.8931354651 1.3846134492 1
10.3327524662 115.1115677357 -8.8474311836 0.529314495 1
13.888304472 115.1115677357 0 -0 0
17.4438564777 115.1115677357 0 -0 0
20.9994084835 115.1115677357 0 -0 0
24.5549604893 115.1115677357 0 -0 0
28.110512495 115.1115677357 0 -0 0
31.6660645008 115.1115677357 0 -0 0
35.2216165066 115.1115677357 -9.8051397656 0.3029001224 1
38.7771685123 115.1115677357 -9.3931872366 0.310266032 1
42.3327205181 115.1115677357 -9.3568402529 0.6408828237 1
45.8882725239 115.1115677357 -9.5176860015 0.29698477 1
49.4438245296 115.1115677357 0 -0 0
52.9993765354 115.1115677357 0 -0 0
-124.778223753 111.5560157299 -11.1633811391 -0.7040142824 1
-121.2226717472 111.5560157299 -10.1266150395 -0.5492013054 1
-117.6671197414 111.5560157299 -10.8398037743 -0.0967147944 1
-114.1115677357 111.5560157299 -10.8182924256 -0.5530217267 1
-110.5560157299 111.5560157299 -10.6990503198 -0.2785814515 1
-107.0004637241 111.5560157299 -10.332541186 -0.652428572 1
-103.4449117184 111.5560157299 -10.859141435 -0.0294249761 1
-99.8893597126 111.5560157299 -11.0030143751 -0.2274367792 1
-96.3338077068 111.5560157299 -10.9869558616 -0.0879785162 1
-92.7782557011 111.5560157299 -10.801867335 -0.0379120963 1
-89.2227036953 111.5560157299 -10.4502582737 0.4553618506 1
-85.6671516895 111.5560157299 -10.7670353459 0.4520755437 1
-82.1115996838 111.5560157299 -10.9434742269 0.5455699005 1
-78.556047678 111.5560157299 -10.6666447565 0.2259719025 1
-75.0004956722 111.5560157299 -10.90369989 0.3362772584 1
-71.4449436665 111.5560157299 -11.0309916578 -0.0458164161 1
-67.8893916607 111.5560157299 0 -0 0
-64.3338396549 111.5560157299 0 -0 0
-60.7782876492 111.5560157299 -10.409046983 0.4889609376 1
-57.2227356434 111.5560157299 -10.0018986194 0.878659656 1
-53.6671836376 111.5560157299 -11.1349127002 0.5961188849 1
-50.1116316319 111.5560157299 -11.2835604509 0.4299391524 1
-46.5560796261 111.5560157299 -10.3313025562 0.7777678868 1
-43.0005276203 111.5560157299 -10.698599974 0.6779572339 1
-39.4449756145 111.5560157299 -10.9059430272 0.553777792 1
-35.8894236088 111.5560157299 -10.16467033 1.0788823775 1
-32.333871603 111.5560157299 -10.8646751748 1.0663428615 1
-28.7783195972 111.5560157299 0 -0 0
-25.2227675915 111.5560157299 -10.1109395705 0.6334395892 1
-21.6672155857 111.5560157299 -10.2531357065 1.5858098913 1
-18.1116635799 111.5560157299 -9.9904144446 1.3365832508 1
-14.5561115742 111.5560157299 -10.5916868888 0.9255242536 1
-11.0005595684 111.5560157299 -9.7033401452 0.9951882317 1
-7.4450075626 111.5560157299 -10.1322010453 0.8609078711 1
-3.8894555569 111.5560157299 -9.8046171068 0.9819957501 1
-0.3339035511 111.5560157299 -10.7109254148 0.7822097709 1
3.2216484547 111.5560157299 -9.3642133223 0.2779370776 1
6.7772004604 111.5560157299 -9.4089672374 -0.0512305888 1
10.3327524662 111.5560157299 -9.1878352988 1.0800966643 1
13.888304472 111.5560157299 0 -0 0
17.4438564777 111.5560157299 0 -0 0
20.9994084835 111.5560157299 0 -0 0
24.5549604893 111.5560157299 0 -0 0
28.110512495 111.5560157299 0 -0 0
31.6660645008 111.5560157299 0 -0 0
35.2216165066 111.5560157299 -9.4755682916 0.7893021796 1
38.7771685123 111.5560157299 -8.6932382376 0.7778180048 1
42.3327205181 111.5560157299 -9.0706580534 0.2222789241 1
45.8882725239 111.5560157299 -9.5237316606 0.4183848124 1
49.4438245296 111.5560157299 -9.4710247396 0.7613750149 1
52.9993765354 111.5560157299 0 -0 0
-124.778223753 108.0004637241 -10.5165249694 -0.3294039368 1
-121.2226717472 108.0004637241 -10.4934857386 -0.1824938477 1
-117.6671197414 108.0004637241 -10.5956447765 -0.5023438675 1
-114.1115677357 108.0004637241 -10.751899003 -0.1587937757 1
-110.5560157299 108.0004637241 -10.5968275606 -0.6509178732 1
-107.0004637241 108.0004637241 -10.7738606974 -0.4773851185 1
-103.4449117184 108.0004637241 -10.7662828604 0.1859133252 1
-99.8893597126 108.0004637241 -10.273121321 0.0277768108 1
-96.3338077068 108.0004637241 -11.0295439644 -0.3943324827 1
-92.7782557011 108.0004637241 -11.0345013476 -0.1303153133 1
-89.2227036953 108.0004637241 -10.8143953955 -0.2603098716 1
-85.6671516895 108.0004637241 -11.1606310945 0.0023283377 1
-82.1115996838 108.0004637241 -11.188194546 0.1594596287 1
-78.556047678 108.0004637241 -11.0348908358 0.1622719628 1
-75.0004956722 108.0004637241 -10.576869153 0.4129004746 1
-71.4449436665 108.0004637241 -11.0505842042 0.5192250317 1
-67.8893916607 108.0004637241 0 -0 0
-64.3338396549 108.0004637241 0 -0 0
-60.7782876492 108.0004637241 -10.4540214172 0.6890361691 1
-57.2227356434 108.0004637241 -11.0404546465 0.8775914273 1
-53.6671836376 108.0004637241 -10.9027748555 0.2647660751 1
-50.1116316319 108.0004637241 -10.8681125516 0.721403786 1
-46.5560796261 108.0004637241 -10.924511019 1.0383498274 1
-43.0005276203 108.0004637241 -10.1323342159 0.664696019 1
-39.4449756145 108.0004637241 -9.9965503161 1.0011780451 1
-35.8894236088 108.0004637241 -10.2546621567 1.1258715541 1
-32.333871603 108.0004637241 -10.7012748417 0.8120757851 1
-28.7783195972 108.0004637241 -9.6753413833 0.1809673975 1
-25.2227675915 108.0004637241 -10.1986231067 1.0057144374 1
-21.6672155857 108.0004637241 -10.0942230796 1.3229153644 1
-18.1116635799 108.0004637241 -9.9926038839 1.5954039027 1
-14.5561115742 108.0004637241 -10.8567336245 1.1017862898 1
-11.0005595684 108.0004637241 -9.6430396358 1.2901639871 1
-7.4450075626 108.0004637241 -10.0592249853 0.9714136988 1
-3.8894555569 108.0004637241 -9.2515853565 1.0797644538 1
-0.3339035511 108.0004637241 -9.4258813363 0.7047331173 1
3.2216484547 108.0004637241 -9.3766826732 0.4939326402 1
6.7772004604 108.0004637241 -9.8894868769 1.037841488 1
10.3327524662 108.0004637241 -9.4474349272 0.7229216445 1
13.888304472 108.0004637241 0 -0 0
17.4438564777 108.0004637241 0 -0 0
20.9994084835 108.0004637241 0 -0 0
24.5549604893 108.0004637241 0 -0 0
28.110512495 108.0004637241 0 -0 0
31.6660645008 108.0004637241 0 -0 0
35.2216165066 108.0004637241 -8.9500656262 0.3747306287 1
38.7771685123 108.0004637241 -9.4088426585 0.2564207171 1
42.3327205181 108.0004637241 -8.5948609585 0.5878007339 1
45.8882725239 108.0004637241 -9.4245353108 0.2017319884 1
49.4438245296 108.0004637241 -9.4770016655 0.9163455054 1
52.9993765354 108.0004637241 0 -0 0
-124.778223753 104.4449117184 -10.474861901 -0.4320884973 1
-121.2226717472 104.4449117184 -10.658509178 -0.7250996283 1
-117.6671197414 104.4449117184 -10.5503137887 -0.0977085621 1
-114.1115677357 104.4449117184 -10.9349613317 -0.0225802933 1
-110.5560157299 104.4449117184 -10.4584776207 -0.8547390649 1
-107.0004637241 104.4449117184 -10.6325853001 -0.3811271136 1
-103.4449117184 104.4449117184 -11.1103899776 -0.203173954 1
-99.8893597126 104.4449117184 -10.9156472981 0.0635968399 1
-96.3338077068 104.4449117184 -11.2111743511 -0.1717184842 1
-92.7782557011 104.4449117184 -10.957888155 -0.5364555897 1
-89.2227036953 104.4449117184 -11.121662225 -0.1083435953 1
-85.6671516895 104.4449117184 -11.211226617 0.378376353 1
-82.1115996838 104.4449117184 -11.1141180386 0.4320942251 1
-78.556047678 104.4449117184 -11.1764368702 0.2560197734 1
-75.0004956722 104.4449117184 -11.3492944642 0.5915180553 1
-71.4449436665 104.4449117184 -11.4863578042 0.1237026052 1
-67.8893916607 104.4449117184 0 -0 0
-64.3338396549 104.4449117184 0 -0 0
-60.7782876492 104.4449117184 -10.8457692446 0.8534359977 1
-57.2227356434 104.4449117184 -10.8321614998 0.5590229956 1
-53.6671836376 104.4449117184 -11.2009159186 0.7685132457 1
-50.1116316319 104.4449117184 -10.9005438899 0.9113680751 1
-46.5560796261 104.4449117184 -10.042297999 1.1397599596 1
-43.0005276203 104.4449117184 -10.6557154592 1.3278183338 1
-39.4449756145 104.4449117184 -10.7891652935 0.5649927617 1
-35.8894236088 104.4449117184 -10.0247123193 0.7578438459 1
-32.333871603 104.4449117184 -10.1939420883 1.014042612 1
-28.7783195972 104.4449117184 -9.8305238013 1.1125573575 1
-25.2227675915 104.4449117184 -10.3274019462 1.7146918307 1
-21.6672155857 104.4449117184 -10.514064893 1.3098617812 1
-18.1116635799 104.4449117184 -10.4633748623 1.7766777358 1
-14.5561115742 104.4449117184 -10.2418233648 0.892632546 1
-11.0005595684 104.4449117184 -9.521079704 1.341145418 1
-7.4450075626 104.4449117184 -9.2857557884 0.892188644 1
-3.8894555569 104.4449117184 -9.2992547055 0.7187160309 1
-0.3339035511 104.4449117184 -9.5517819724 1.0612494438 1
3.2216484547 104.4449117184 -9.2462485087 1.2501082737 1
6.7772004604 104.4449117184 -9.5040682331 1.0186291222 1
10.3327524662 104.4449117184 -9.4803552737 0.8017572111 1
13.888304472 104.4449117184 0 -0 0
17.4438564777 104.4449117184 0 -0 0
20.9994084835 104.4449117184 0 -0 0
24.5549604893 104.4449117184 0 -0 0
28.110512495 104.4449117184 0 -0 0
31.6660645008 104.4449117184 0 -0 0
35.2216165066 104.4449117184 -9.202025844 0.9057792055 1
38.7771685123 104.4449117184 -9.6607055042 1.0052447604 1
42.3327205181 104.4449117184 -9.5495137763 0.5802901981 1
45.8882725239 104.4449117184 -9.1572475859 0.5706475007 1
49.4438245296 104.4449117184 -9.2473725831 0.8282109075 1
52.9993765354 104.4449117184 0 -0 0
-124.778223753 100.8893597126 -9.925528857 -0.5979632262 1
-121.2226717472 100.8893597126 -10.2521806012 -0.5806195447 1
-117.6671197414 100.8893597126 -10.3275938264 -1.0325647817 1
-114.1115677357 100.8893597126 -10.8572333722 -0.6344075819 1
-110.5560157299 100.8893597126 -11.1092952579 -0.7350530571 1
-107.0004637241 100.8893597126 -11.1005976423 -0.7952003487 1
-103.4449117184 100.8893597126 -11.2876185746 -0.1270275745 1
-99.8893597126 100.8893597126 -10.9152463543 -0.365637797 1
-96.3338077068 100.8893597126 -11.0778125812 -0.1936057176 1
-92.7782557011 100.8893597126 -11.4793684953 -0.1897953199 1
-89.2227036953 100.8893597126 -11.1276334231 0.0567077669 1
-85.6671516895 100.8893597126 -11.2627665053 0.1086070726 1
-82.1115996838 100.8893597126 -10.8981231919 0.3612002088 1
-78.556047678 100.8893597126 -11.1672796012 0.3606431834 1
-75.0004956722 100.8893597126 -11.3496918282 0.6354471718 1
-71.4449436665 100.8893597126 -11.1450293704 0.5798949821 1
-67.8893916607 100.8893597126 0 -0 0
-64.3338396549 100.8893597126 0 -0 0
-60.7782876492 100.8893597126 -11.3428965474 0.8682007516 1
-57.2227356434 100.8893597126 -10.2039384754 0.6267867866 1
-53.6671836376 100.8893597126 -10.7925310732 1.718485045 1
-50.1116316319 100.8893597126 -10.2767083357 0.7266189187 1
-46.5560796261 100.8893597126 -11.9711596663 0.9884752877 1
-43.0005276203 100.8893597126 -11.0024151073 1.0406180235 1
-39.4449756145 100.8893597126 -10.0064708102 1.6274665159 1
-35.8894236088 100.8893597126 -10.7226114934 0.5718517639 1
-32.333871603 100.8893597126 -10.589928464 1.32277933 1
-28.7783195972 100.8893597126 -11.318268577 1.1485205807 1
-25.2227675915 100.8893597126 -10.1686310816 0.8685515774 1
-21.6672155857 100.8893597126 -10.4874887656 1.0189226703 1
-18.1116635799 100.8893597126 -10.5360516464 2.3776423124 1
-14.5561115742 100.8893597126 -10.4068088577 2.0108618257 1
-11.0005595684 100.8893597126 -10.9522262564 0.9824124453 1
-7.4450075626 100.8893597126 -10.6680308763 1.9372012975 1
-3.8894555569 100.8893597126 -9.4001522025 1.3275935189 1
-0.3339035511 100.8893597126 -9.6080630206 1.6090660613 1
3.2216484547 100.8893597126 -9.7141269643 0.7999386448 1
6.7772004604 100.8893597126 -8.9434887166 0.9247624605 1
10.3327524662 100.8893597126 -9.544212727 1.0244585581 1
13.888304472 100.8893597126 0 -0 0
17.4438564777 100.8893597126 0 -0 0
20.9994084835 100.8893597126 0 -0 0
24.5549604893 100.8893597126 0 -0 0
28.110512495 100.8893597126 0 -0 0
31.6660645008 100.8893597126 0 -0 0
35.2216165066 100.8893597126 -9.4188003831 0.4330478985 1
38.7771685123 100.8893597126 -8.4669198051 0.5338938455 1
42.3327205181 100.8893597126 -8.8719403028 0.4080805578 1
45.8882725239 100.8893597126 -8.9243092855 0.5404850745 1
49.4438245296 100.8893597126 -9.3524986048 0.6780904045 1
52.9993765354 100.8893597126 0 -0 0
-124.778223753 97.3338077068 -10.608741318 -0.6392862083 1
-121.2226717472 97.3338077068 -10.6546679936 -0.4092375669 1
-117.6671197414 97.3338077068 -10.6354856986 -0.6290263439 1
-114.1115677357 97.3338077068 -10.4421892805 -0.5018111851 1
-110.5560157299 97.3338077068 -10.674012098 -0.6786817965 1
-107.0004637241 97.3338077068 -11.190044615 -0.206012063 1
-103.4449117184 97.3338077068 -11.0853760988 -0.3416857033 1
-99.8893597126 97.3338077068 -10.9152885966 -0.3429186053 1
-96.3338077068 97.3338077068 -11.3623831301 -0.1233202766 1
-92.7782557011 97.3338077068 -11.1105231482 -0.2658615107 1
-89.2227036953 97.3338077068 -11.3639446628 0.157997616 1
-85.6671516895 97.3338077068 -11.2397974397 0.5248468359 1
-82.1115996838 97.3338077068 -11.0647969444 0.2122438746 1
-78.556047678 97.3338077068 -11.3914350853 0.414100442 1
-75.0004956722 97.3338077068 -11.2545750811 0.4976957838 1
-71.4449436665 97.3338077068 -11.5330348174 0.4031346302 1
-67.8893916607 97.3338077068 0 -0 0
-64.3338396549 97.3338077068 0 -0 0
-60.7782876492 97.3338077068 -10.99933858 0.9549205909 1
-57.2227356434 97.3338077068 -11.3915424809 0.9427304687 1
-53.6671836376 97.3338077068 -11.2927270276 0.9520996651 1
-50.1116316319 97.3338077068 -11.144126531 0.8439880444 1
-46.5560796261 97.3338077068 -10.9173849597 1.579449205 1
-43.0005276203 97.3338077068 -10.9625190554 1.8051017844 1
-39.4449756145 97.3338077068 -10.2770505698 1.0862182164 1
-35.8894236088 97.3338077068 -10.6292001892 0.9112005378 1
-32.333871603 97.3338077068 -9.9907609746 1.1236262691 1
-28.7783195972 97.3338077068 -10.4224485282 1.2041844619 1
-25.2227675915 97.3338077068 -10.6497392492 1.8425456357 1
-21.6672155857 97.3338077068 -10.1853762113 1.1933833234 1
-18.1116635799 97.3338077068 -10.0774435833 1.6164820889 1
-14.5561115742 97.3338077068 -10.4779062097 1.420858765 1
-11.0005595684 97.3338077068 -10.0821532405 1.4778500565 1
-7.4450075626 97.3338077068 -9.508911061 1.1242906902 1
-3.8894555569 97.3338077068 -9.623260221 1.8461383782 1
-0.3339035511 97.3338077068 -9.8606604526 1.0647619975 1
3.2216484547 97.3338077068 -9.7063157207 1.1425536784 1
6.7772004604 97.3338077068 -9.4401993243 1.481269534 1
10.3327524662 97.3338077068 -9.5623683196 0.9499646396 1
13.888304472 97.3338077068 -9.0678228082 0.9641322737 1
17.4438564777 97.3338077068 0 -0 0
20.9994084835 97.3338077068 0 -0 0
24.5549604893 97.3338077068 0 -0 0
28.110512495 97.3338077068 0 -0 0
31.6660645008 97.3338077068 0 -0 0
35.2216165066 97.3338077068 -8.3317688237 0.2093155532 1
38.7771685123 97.3338077068 -9.2702134899 0.5640419523 1
42.3327205181 97.3338077068 -8.5764619358 0.4643888129 1
45.8882725239 97.3338077068 -8.4949099753 0.3871083353 1
49.4438245296 97.3338077068 -9.1517432008 0.267854774 1
52.9993765354 97.3338077068 0 -0 0
-124.778223753 93.7782557011 -9.9764701935 -0.7457339124 1
-121.2226717472 93.7782557011 -10.2926057557 -0.6682873296 1
-117.6671197414 93.7782557011 -10.595581771 -1.0256914601 1
-114.1115677357 93.7782557011 -11.141536148 -0.8244620834 1
-110.5560157299 93.7782557011 -10.917722898 -0.5748044283 1
-107.0004637241 93.7782557011 -11.1233569283 -0.5329659471 1
-103.4449117184 93.7782557011 -11.4665476027 -0.7543957296 1
-99.8893597126 93.7782557011 -11.4653920255 -0.3178080705 1
-96.3338077068 93.7782557011 -11.4278751452 -0.2153239818 1
-92.7782557011 93.7782557011 -11.6224159209 0.475841485 1
-89.2227036953 93.7782557011 -11.5594555792 -0.3204585951 1
-85.6671516895 93.7782557011 -11.1156860151 0.1730100959 1
-82.1115996838 93.7782557011 -11.2303437586 0.2041791773 1
-78.556047678 93.7782557011 -11.693387262 0.4352831599 1
-75.0004956722 93.7782557011 -11.5159016315 0.4540301445 1
-71.4449436665 93.7782557011 -11.5826451639 0.8766134109 1
-67.8893916607 93.7782557011 0 -0 0
-64.3338396549 93.7782557011 -10.4501924043 0.8001319569 1
-60.7782876492 93.7782557011 -11.1752834409 0.5629021264 1
-57.2227356434 93.7782557011 -11.2051988572 1.0137490639 1
-53.6671836376 93.7782557011 -11.5428436201 0.4538311046 1
-50.1116316319 93.7782557011 -11.1553042702 1.2112868942 1
-46.5560796261 93.7782557011 -10.6026992387 0.9462201113 1
-43.0005276203 93.7782557011 -10.6328423337 1.2018074382 1
-39.4449756145 93.7782557011 -10.2346851339 1.6974598407 1
-35.8894236088 93.7782557011 -10.9209984653 1.5735682192 1
-32.333871603 93.7782557011 -9.9489124698 1.1621498046 1
-28.7783195972 93.7782557011 -10.1679595008 0.7553293557 1
-25.2227675915 93.7782557011 -10.2117597426 0.991231776 1
-21.6672155857 93.7782557011 -10.3485961197 1.8347401199 1
-18.1116635799 93.7782557011 -10.1626842265 2.235185563 1
-14.5561115742 93.7782557011 -9.6731390566 2.5780511865 1
-11.0005595684 93.7782557011 -10.0427304455 1.4040950201 1
-7.4450075626 93.7782557011 -10.0983485045 1.3837929465 1
-3.8894555569 93.7782557011 -10.1936700193 1.3259066913 1
-0.3339035511 93.7782557011 -9.7483933362 1.3806369463 1
3.2216484547 93.7782557011 -8.8794078804 1.6796579378 1
6.7772004604 93.7782557011 -9.5292102707 1.6084159596 1
10.3327524662 93.7782557011 -9.2120136394 1.0731417221 1
13.888304472 93.7782557011 -9.0954292179 1.2055691498 1
17.4438564777 93.7782557011 0 -0 0
20.9994084835 93.7782557011 0 -0 0
24.5549604893 93.7782557011 0 -0 0
28.110512495 93.7782557011 0 -0 0
31.6660645008 93.7782557011 0 -0 0
35.2216165066 93.7782557011 -8.8642078161 0.6473394501 1
38.7771685123 93.7782557011 -9.0412230537 0.678521419 1
42.3327205181 93.7782557011 -8.8928266088 -0.0057535429 1
45.8882725239 93.7782557011 -8.5397612625 0.6266006342 1
49.4438245296 93.7782557011 -8.7983570995 -0.1351438217 1
52.9993765354 93.7782557011 0 -0 0
-124.778223753 90.2227036953 -10.7854171853 -0.2126304989 1
-121.2226717472 90.2227036953 -10.7006276039 -0.5093575194 1
-117.6671197414 90.2227036953 -10.2689328906 -0.8366593653 1
-114.1115677357 90.2227036953 -10.9860107798 -1.103262622 1
-110.5560157299 90.2227036953 -10.9878350739 -1.2618845646 1
-107.0004637241 90.2227036953 -11.2563943634 -0.7640069242 1
-103.4449117184 90.2227036953 -11.0680961388 -0.624285184 1
-99.8893597126 90.2227036953 -11.379147591 -0.4246037365 1
-96.3338077068 90.2227036953 -11.2670902541 -0.4818957358 1
-92.7782557011 90.2227036953 -11.3393632305 0.4446065342 1
-89.2227036953 90.2227036953 -11.2207440195 -0.1039432376 1
-85.6671516895 90.2227036953 -11.4532985593 -0.23753913 1
-82.1115996838 90.2227036953 -11.2892896509 0.2457856839 1
-78.556047678 90.2227036953 -12.3314104975 -0.2584612345 1
-75.0004956722 90.2227036953 -11.8001242184 -0.1680727598 1
-71.4449436665 90.2227036953 -11.8722640242 0.1658117234 1
-67.8893916607 90.2227036953 0 -0 0
-64.3338396549 90.2227036953 0 -0 0
-60.7782876492 90.2227036953 -11.2677145808 1.0509323017 1
-57.2227356434 90.2227036953 -11.3760417088 0.8859797435 1
-53.6671836376 90.2227036953 -10.9752311205 1.2643961909 1
-50.1116316319 90.2227036953 -10.899652506 0.9465780968 1
-46.5560796261 90.2227036953 -10.9890307455 1.0807510618 1
-43.0005276203 90.2227036953 -9.8709561155 1.1368345021 1
-39.4449756145 90.2227036953 -10.7498864086 1.6969815721 1
-35.8894236088 90.2227036953 -10.1415430348 1.6940002689 1
-32.333871603 90.2227036953 -10.4389473638 1.6990621838 1
-28.7783195972 90.2227036953 -10.3806372538 1.0720734933 1
-25.2227675915 90.2227036953 -10.6494686122 1.0647090157 1
-21.6672155857 90.2227036953 -10.2671758978 1.6000534184 1
-18.1116635799 90.2227036953 -10.4054599683 2.2210422719 1
-14.5561115742 90.2227036953 -9.9861529852 1.4140599044 1
-11.0005595684 90.2227036953 0 -0 0
-7.4450075626 90.2227036953 -9.6435250641 1.8444014325 1
-3.8894555569 90.2227036953 -9.4896858077 1.4755789965 1