TITLE = "B00001"
VARIABLES = "x", "y", "Vx", "Vy", "isValid"
ZONE T="Frame 0", I=51, J=39, F=POINT
-124.778223753 125.778223753 -9.8123689247 0.371666519 1
-121.2226717472 125.778223753 -9.6540791926 0.3430595621 1
-117.6671197414 125.778223753 -9.7122231974 0.2613864011 1
-114.1115677357 125.778223753 -9.814165296 0.2570539263 1
-110.5560157299 125.778223753 -9.756273313 0.2187473748 1
-107.0004637241 125.778223753 -9.7490233907 0.1971204863 1
-103.4449117184 125.778223753 -9.7881504898 0.1062191975 1
-99.8893597126 125.778223753 -9.8093045689 0.2283131948 1
-96.3338077068 125.778223753 -9.8380164378 0.2836942004 1
-92.7782557011 125.778223753 -9.5857053942 0.3055371554 1
-89.2227036953 125.778223753 -9.6703052433 0.2728349116 1
-85.6671516895 125.778223753 -9.7774288241 0.170551306 1
-82.1115996838 125.778223753 -9.7765732387 0.0656069844 1
-78.556047678 125.778223753 -9.8129331099 0.1083392995 1
-75.0004956722 125.778223753 -9.7841897382 0.2887581066 1
-71.4449436665 125.778223753 0 -0 0
-67.8893916607 125.778223753 0 -0 0
-64.3338396549 125.778223753 0 -0 0
-60.7782876492 125.778223753 0 -0 0
-57.2227356434 125.778223753 -9.8382419687 0.1922747275 1
-53.6671836376 125.778223753 -9.7353526405 0.2011201688 1
-50.1116316319 125.778223753 -9.7839112255 0.2205089543 1
-46.5560796261 125.778223753 -9.6677735699 0.3473880543 1
-43.0005276203 125.778223753 -9.8269174554 0.3318641697 1
-39.4449756145 125.778223753 -9.7321601258 0.3245120202 1
-35.8894236088 125.778223753 -9.7392382151 0.0686778455 1
-32.333871603 125.778223753 -9.7165190234 0.1943301907 1
-28.7783195972 125.778223753 -10.1504046079 0.3647311093 1
-25.2227675915 125.778223753 -9.5847338216 0.1904210786 1
-21.6672155857 125.778223753 -9.5085666789 0.2020500585 1
-18.1116635799 125.778223753 -9.8189916565 0.2136131691 1
-14.5561115742 125.778223753 -9.6648187576 0.4294685357 1
-11.0005595684 125.778223753 -9.5490806138 0.1427697519 1
-7.4450075626 125.778223753 -9.6310335181 0.2996935344 1
-3.8894555569 125.778223753 -9.841296301 0.3040558562 1
-0.3339035511 125.778223753 -9.7335147429 0.3936320393 1
3.2216484547 125.778223753 -9.6048332754 0.2327282971 1
6.7772004604 125.778223753 -9.6104629554 0.1685095693 1
10.3327524662 125.778223753 -9.4866722858 0.4353560995 1
13.888304472 125.778223753 0 -0 0
17.4438564777 125.778223753 0 -0 0
20.9994084835 125.778223753 0 -0 0
24.5549604893 125.778223753 0 -0 0
28.110512495 125.778223753 0 -0 0
31.6660645008 125.778223753 0 -0 0
35.2216165066 125.778223753 0 -0 0
38.7771685123 125.778223753 -9.5671796447 0.0598768112 1
42.3327205181 125.778223753 -9.4509510608 0.0199457592 1
45.8882725239 125.778223753 -9.4953605939 0.1266525064 1
49.4438245296 125.778223753 -9.523178215 0.0429008787 1
52.9993765354 125.778223753 0 -0 0
-124.778223753 122.2226717472 -9.661154418 0.3387245144 1
-121.2226717472 122.2226717472 -9.8864626154 0.4354964298 1
-117.6671197414 122.2226717472 -9.8570154442 0.2327411846 1
-114.1115677357 122.2226717472 -9.8170828778 0.2357897891 1
-110.5560157299 122.2226717472 -9.7982485447 0.2634668786 1
-107.0004637241 122.2226717472 -9.7015566614 0.2990436117 1
-103.4449117184 122.2226717472 -9.7743258058 0.1448815307 1
-99.8893597126 122.2226717472 -9.7814640366 0.163361033 1
-96.3338077068 122.2226717472 -9.745807249 0.3444660424 1
-92.7782557011 122.2226717472 -9.8529387054 0.1923323408 1
-89.2227036953 122.2226717472 -9.8412812656 0.2720231571 1
-85.6671516895 122.2226717472 -9.7727700008 0.2766055952 1
-82.1115996838 122.2226717472 -9.6995018247 0.2956806512 1
-78.556047678 122.2226717472 -9.8289014111 0.2259392587 1
-75.0004956722 122.2226717472 -9.7349388092 0.1382935236 1
-71.4449436665 122.2226717472 0 -0 0
-67.8893916607 122.2226717472 0 -0 0
-64.3338396549 122.2226717472 0 -0 0
-60.7782876492 122.2226717472 -9.7314026285 0.6597693331 1
-57.2227356434 122.2226717472 -9.6304406941 0.18453771 1
-53.6671836376 122.2226717472 -9.7667436729 0.3329038268 1
-50.1116316319 122.2226717472 -9.7868152039 0.1840550896 1
-46.5560796261 122.2226717472 -9.5547496722 0.3785148039 1
-43.0005276203 122.2226717472 -9.6617773128 0.1142198378 1
-39.4449756145 122.2226717472 -9.6543856282 0.190394252 1
-35.8894236088 122.2226717472 -9.7496448535 0.2562986441 1
-32.333871603 122.2226717472 -9.7096786364 0.2834193122 1
-28.7783195972 122.2226717472 -9.9207497505 0.2779305891 1
-25.2227675915 122.2226717472 -9.7991871827 0.4052728775 1
-21.6672155857 122.2226717472 -9.9490814389 0.2128552467 1
-18.1116635799 122.2226717472 -9.9027445119 0.3882665079 1
-14.5561115742 122.2226717472 -9.7020879119 0.2627321581 1
-11.0005595684 122.2226717472 -9.4720149275 0.2036597403 1
-7.4450075626 122.2226717472 -9.7916215172 0.3141042183 1
-3.8894555569 122.2226717472 -9.8198501057 0.3086687902 1
-0.3339035511 122.2226717472 -9.7465518588 0.2650698258 1
3.2216484547 122.2226717472 -9.7554563901 0.3207344453 1
6.7772004604 122.2226717472 -9.6530718214 0.4160324897 1
10.3327524662 122.2226717472 -9.5881275241 0.3138092159 1
13.888304472 122.2226717472 0 -0 0
17.4438564777 122.2226717472 0 -0 0
20.9994084835 122.2226717472 0 -0 0
24.5549604893 122.2226717472 0 -0 0
28.110512495 122.2226717472 0 -0 0
31.6660645008 122.2226717472 0 -0 0
35.2216165066 122.2226717472 0 -0 0
38.7771685123 122.2226717472 -9.699666498 0.0617855843 1
42.3327205181 122.2226717472 -9.6262615714 0.2644102822 1
45.8882725239 122.2226717472 -9.5000358845 0.0967504475 1
49.4438245296 122.2226717472 -9.4799478862 0.2999579067 1
52.9993765354 122.2226717472 0 -0 0
-124.778223753 118.6671197414 -9.6924924686 0.2713577963 1
-121.2226717472 118.6671197414 -9.802612388 0.2978195027 1
-117.6671197414 118.6671197414 -9.7048472641 0.269734265 1
-114.1115677357 118.6671197414 -9.8311832106 0.2621961643 1
-110.5560157299 118.6671197414 -9.7630077362 0.2038029345 1
-107.0004637241 118.6671197414 -9.8424533101 0.2647798799 1
-103.4449117184 118.6671197414 -9.783997142 0.225269535 1
-99.8893597126 118.6671197414 -9.7855071248 0.3138162637 1
-96.3338077068 118.6671197414 -9.7781147243 0.279586451 1
-92.7782557011 118.6671197414 -9.7814626047 0.3106970465 1
-89.2227036953 118.6671197414 -9.7752494084 0.3184855357 1
-85.6671516895 118.6671197414 -9.5762982513 0.1772311029 1
-82.1115996838 118.6671197414 -9.7882586014 0.2562372943 1
-78.556047678 118.6671197414 -9.5545098219 0.2363908467 1
-75.0004956722 118.6671197414 -9.7256061273 0.2967175338 1
-71.4449436665 118.6671197414 0 -0 0
-67.8893916607 118.6671197414 0 -0 0
-64.3338396549 118.6671197414 0 -0 0
-60.7782876492 118.6671197414 -9.788045242 0.0871861992 1
-57.2227356434 118.6671197414 -9.6769508861 0.2111022588 1
-53.6671836376 118.6671197414 -9.6386693488 0.1444861022 1
-50.1116316319 118.6671197414 -9.6358677543 -0.0171822482 1
-46.5560796261 118.6671197414 -9.8578882129 0.2979041439 1
-43.0005276203 118.6671197414 -9.6978615351 0.3024885509 1
-39.4449756145 118.6671197414 -9.8419148999 0.1566113507 1
-35.8894236088 118.6671197414 -9.6958016866 0.208456388 1
-32.333871603 118.6671197414 -9.7369750307 0.361050459 1
-28.7783195972 118.6671197414 -9.8980155234 0.1358439518 1
-25.2227675915 118.6671197414 -9.7042286652 0.3117697277 1
-21.6672155857 118.6671197414 -9.8070349408 0.2270932921 1
-18.1116635799 118.6671197414 -9.833641855 0.2125971615 1
-14.5561115742 118.6671197414 -9.8780807429 0.3469218453 1
-11.0005595684 118.6671197414 -9.9869928192 0.2973659574 1
-7.4450075626 118.6671197414 -9.9392912515 0.2517981175 1
-3.8894555569 118.6671197414 -9.7523254489 0.2987162116 1
-0.3339035511 118.6671197414 -9.8907534296 0.5461177526 1
3.2216484547 118.6671197414 -9.5745691813 0.3200092115 1
6.7772004604 118.6671197414 -9.6226845803 0.4052036074 1
10.3327524662 118.6671197414 -9.5723833219 0.2417505385 1
13.888304472 118.6671197414 0 -0 0
17.4438564777 118.6671197414 0 -0 0
20.9994084835 118.6671197414 0 -0 0
24.5549604893 118.6671197414 0 -0 0
28.110512495 118.6671197414 0 -0 0
31.6660645008 118.6671197414 0 -0 0
35.2216165066 118.6671197414 0 -0 0
38.7771685123 118.6671197414 -9.4775458035 0.0015608963 1
42.3327205181 118.6671197414 -9.6893600955 0.1846637656 1
45.8882725239 118.6671197414 -9.491802934 0.168450703 1
49.4438245296 118.6671197414 -9.5213467612 0.1854896941 1
52.9993765354 118.6671197414 0 -0 0
-124.778223753 115.1115677357 -9.7116919469 0.3330707375 1
-121.2226717472 115.1115677357 -9.8734598661 0.2816799502 1
-117.6671197414 115.1115677357 -9.7310553825 0.249286357 1
-114.1115677357 115.1115677357 -9.576379872 0.3661971046 1
-110.5560157299 115.1115677357 -9.8844321217 0.3969776376 1
-107.0004637241 115.1115677357 -9.7979385293 0.289780021 1
-103.4449117184 115.1115677357 -9.722156579 0.3016484485 1
-99.8893597126 115.1115677357 -9.7252288105 0.2954105288 1
-96.3338077068 115.1115677357 -9.8748896602 0.3042747867 1
-92.7782557011 115.1115677357 -9.7610230646 0.3333372577 1
-89.2227036953 115.1115677357 -9.6936015077 0.3644664014 1
-85.6671516895 115.1115677357 -9.7003602739 0.2806883304 1
-82.1115996838 115.1115677357 -9.6317351697 0.3185006606 1
-78.556047678 115.1115677357 -9.5479114332 0.369064658 1
-75.0004956722 115.1115677357 -9.5562639508 0.2171213599 1
-71.4449436665 115.1115677357 0 -0 0
-67.8893916607 115.1115677357 0 -0 0
-64.3338396549 115.1115677357 0 -0 0
-60.7782876492 115.1115677357 -9.8465765871 0.1306402187 1
-57.2227356434 115.1115677357 -9.7005779291 0.2859764027 1
-53.6671836376 115.1115677357 -9.7412114311 0.3731829232 1
-50.1116316319 115.1115677357 -9.7399169556 0.1271290186 1
-46.5560796261 115.1115677357 -9.9227816762 0.1844030515 1
-43.0005276203 115.1115677357 -9.8058306776 0.2869537254 1
-39.4449756145 115.1115677357 -9.777504717 0.302351353 1
-35.8894236088 115.1115677357 -9.7557098438 0.2323300382 1
-32.333871603 115.1115677357 -9.58526722 0.3077228135 1
-28.7783195972 115.1115677357 -9.714381134 0.273072614 1
-25.2227675915 115.1115677357 -9.4982108744 0.4036678496 1
-21.6672155857 115.1115677357 -9.7588493767 0.2582145825 1
-18.1116635799 115.1115677357 -9.7812241863 0.5133901365 1
-14.5561115742 115.1115677357 -9.5639026454 0.2020493202 1
-11.0005595684 115.1115677357 -9.7366163293 0.1850261588 1
-7.4450075626 115.1115677357 -9.8574829733 0.355487342 1
-3.8894555569 115.1115677357 -9.7467952889 0.3844030389 1
-0.3339035511 115.1115677357 -9.6753549868 0.3327448141 1
3.2216484547 115.1115677357 -9.6561061065 0.2977670354 1
6.7772004604 115.1115677357 -9.5901250832 0.35124678 1
10.3327524662 115.1115677357 -9.5727219762 0.2883377198 1
13.888304472 115.1115677357 -9.6089859072 0.2709754454 1
17.4438564777 115.1115677357 0 -0 0
20.9994084835 115.1115677357 0 -0 0
24.5549604893 115.1115677357 0 -0 0
28.110512495 115.1115677357 0 -0 0
31.6660645008 115.1115677357 0 -0 0
35.2216165066 115.1115677357 0 -0 0
38.7771685123 115.1115677357 -9.2667539181 0.2731690239 1
42.3327205181 115.1115677357 -9.5395639273 0.1359207285 1
45.8882725239 115.1115677357 -9.4966822763 -0.0433950777 1
49.4438245296 115.1115677357 -9.3802868712 0.2449813576 1
52.9993765354 115.1115677357 0 -0 0
-124.778223753 111.5560157299 -9.6862248585 0.3165036832 1
-121.2226717472 111.5560157299 -9.8924109025 0.2974760827 1
-117.6671197414 111.5560157299 -9.9167045144 0.2574874468 1
-114.1115677357 111.5560157299 -9.7221014492 0.2478441453 1
-110.5560157299 111.5560157299 -9.7058481916 0.2561879594 1
-107.0004637241 111.5560157299 -9.7269335375 0.27232429 1
-103.4449117184 111.5560157299 -9.7840658752 0.2564752652 1
-99.8893597126 111.5560157299 -9.8609174862 0.3081357498 1
-96.3338077068 111.5560157299 -9.7360886586 0.1811605643 1
-92.7782557011 111.5560157299 -9.7547124962 0.2710247132 1
-89.2227036953 111.5560157299 -9.7103695485 0.2727974797 1
-85.6671516895 111.5560157299 -9.8372997509 0.1591803217 1
-82.1115996838 111.5560157299 -9.7751162377 0.3689941125 1
-78.556047678 111.5560157299 -9.828087352 0.2436176566 1
-75.0004956722 111.5560157299 -9.6205789096 0.2491509042 1
-71.4449436665 111.5560157299 0 -0 0
-67.8893916607 111.5560157299 0 -0 0
-64.3338396549 111.5560157299 0 -0 0
-60.7782876492 111.5560157299 -9.7635790811 0.3260353827 1
-57.2227356434 111.5560157299 -9.6102839626 0.2877633544 1
-53.6671836376 111.5560157299 -9.8210457773 0.1764273919 1
-50.1116316319 111.5560157299 -9.7542821977 0.1940227931 1
-46.5560796261 111.5560157299 -9.8415404471 0.1847974173 1
-43.0005276203 111.5560157299 -9.8664991961 0.0610812534 1
-39.4449756145 111.5560157299 -9.7014506977 0.2926788309 1
-35.8894236088 111.5560157299 -9.7413424538 0.3620254549 1
-32.333871603 111.5560157299 -9.5858779433 0.0615025352 1
-28.7783195972 111.5560157299 -9.7793232833 0.1600856894 1
-25.2227675915 111.5560157299 -9.5759051832 0.4318307478 1
-21.6672155857 111.5560157299 -9.7171655452 0.3709920072 1
-18.1116635799 111.5560157299 -9.7280769432 0.0925852247 1
-14.5561115742 111.5560157299 -9.8941299488 0.2973808138 1
-11.0005595684 111.5560157299 -10.0737398654 0.2164093939 1
-7.4450075626 111.5560157299 -9.6209182799 0.21218116 1
-3.8894555569 111.5560157299 -9.7568625572 0.2591418096 1
-0.3339035511 111.5560157299 -9.719985039 0.3780892934 1
3.2216484547 111.5560157299 -9.7546029527 0.4239640164 1
6.7772004604 111.5560157299 -9.6378345266 0.3109677507 1
10.3327524662 111.5560157299 -9.7301274841 0.3364564077 1
13.888304472 111.5560157299 0 -0 0
17.4438564777 111.5560157299 0 -0 0
20.9994084835 111.5560157299 0 -0 0
24.5549604893 111.5560157299 0 -0 0
28.110512495 111.5560157299 0 -0 0
31.6660645008 111.5560157299 0 -0 0
35.2216165066 111.5560157299 -9.4380263523 0.1909900965 1
38.7771685123 111.5560157299 -9.4187130346 0.1982548753 1
42.3327205181 111.5560157299 -9.329657698 0.1564395848 1
45.8882725239 111.5560157299 -9.4713590981 0.1979511246 1
49.4438245296 111.5560157299 -9.428629233 0.0608947653 1
52.9993765354 111.5560157299 0 -0 0
-124.778223753 108.0004637241 -9.9322496767 0.33810954 1
-121.2226717472 108.0004637241 -9.8901047599 0.2726844906 1
-117.6671197414 108.0004637241 -9.7131396402 0.2729851984 1
-114.1115677357 108.0004637241 -9.7212537396 0.2117342599 1
-110.5560157299 108.0004637241 -9.6385683969 0.21901168 1
-107.0004637241 108.0004637241 -9.7466664142 0.3670708801 1
-103.4449117184 108.0004637241 -9.7923367722 0.3445281081 1
-99.8893597126 108.0004637241 -9.7597672515 0.3044499758 1
-96.3338077068 108.0004637241 -9.7264259141 0.2255371291 1
-92.7782557011 108.0004637241 -9.8479183167 0.2666732652 1
-89.2227036953 108.0004637241 -9.7747081343 0.2418073463 1
-85.6671516895 108.0004637241 -9.627951263 0.1774328836 1
-82.1115996838 108.0004637241 -9.5692488009 0.3098348608 1
-78.556047678 108.0004637241 -9.6201951492 0.2296221464 1
-75.0004956722 108.0004637241 -9.700702508 0.1838415289 1
-71.4449436665 108.0004637241 0 -0 0
-67.8893916607 108.0004637241 0 -0 0
-64.3338396549 108.0004637241 0 -0 0
-60.7782876492 108.0004637241 -9.6943017273 0.2867490025 1
-57.2227356434 108.0004637241 -9.6461183111 0.0694110949 1
-53.6671836376 108.0004637241 -9.8927538526 0.3127079406 1
-50.1116316319 108.0004637241 -9.5660254994 0.2664853004 1
-46.5560796261 108.0004637241 -9.713664447 0.3022041986 1
-43.0005276203 108.0004637241 -9.8338988886 0.2370316855 1
-39.4449756145 108.0004637241 -9.7553497104 0.2131738314 1
-35.8894236088 108.0004637241 -9.6788138427 0.2635578964 1
-32.333871603 108.0004637241 -9.56413462 0.0766541484 1
-28.7783195972 108.0004637241 -9.639875044 0.3812205031 1
-25.2227675915 108.0004637241 -9.5378541886 0.2617248988 1
-21.6672155857 108.0004637241 -9.7719065398 0.3816135264 1
-18.1116635799 108.0004637241 -9.7284485321 0.4347370978 1
-14.5561115742 108.0004637241 -9.8289257541 0.4674081969 1
-11.0005595684 108.0004637241 -9.7293606792 0.3181526987 1
-7.4450075626 108.0004637241 -9.6888710873 0.3356633804 1
-3.8894555569 108.0004637241 -9.612078186 0.273455032 1
-0.3339035511 108.0004637241 -9.6699508377 0.4018772956 1
3.2216484547 108.0004637241 -9.729044936 0.3940132939 1
6.7772004604 108.0004637241 -9.8193704051 0.4001915419 1
10.3327524662 108.0004637241 -9.5430564338 0.4376494441 1
13.888304472 108.0004637241 -10.2062589374 0.5280250312 1
17.4438564777 108.0004637241 0 -0 0
20.9994084835 108.0004637241 0 -0 0
24.5549604893 108.0004637241 0 -0 0
28.110512495 108.0004637241 0 -0 0
31.6660645008 108.0004637241 0 -0 0
35.2216165066 108.0004637241 -9.3306192471 0.0953702791 1
38.7771685123 108.0004637241 -9.4904232579 0.1558207733 1
42.3327205181 108.0004637241 -9.5062483648 0.0217890321 1
45.8882725239 108.0004637241 -9.3845540583 0.0507641337 1
49.4438245296 108.0004637241 -9.5606893676 0.0581111484 1
52.9993765354 108.0004637241 0 -0 0
-124.778223753 104.4449117184 -9.7592467406 0.3585829768 1
-121.2226717472 104.4449117184 -9.8356329704 0.2877067927 1
-117.6671197414 104.4449117184 -9.8390846666 0.3248255707 1
-114.1115677357 104.4449117184 -9.7623676582 0.2721356093 1
-110.5560157299 104.4449117184 -9.696037957 0.2484905552 1
-107.0004637241 104.4449117184 -9.7967958396 0.1605149029 1
-103.4449117184 104.4449117184 -9.6762026965 0.2705524856 1
-99.8893597126 104.4449117184 -9.8085964736 0.1698140684 1
-96.3338077068 104.4449117184 -9.7653897717 0.2165695476 1
-92.7782557011 104.4449117184 -9.744572915 0.3076397161 1
-89.2227036953 104.4449117184 -9.6638421731 0.0648673304 1
-85.6671516895 104.4449117184 -9.7609034975 0.3114456613 1
-82.1115996838 104.4449117184 -9.5641396318 0.2021257725 1
-78.556047678 104.4449117184 -9.652884953 0.2805415563 1
-75.0004956722 104.4449117184 -9.6981457756 0.3585696642 1
-71.4449436665 104.4449117184 0 -0 0
-67.8893916607 104.4449117184 0 -0 0
-64.3338396549 104.4449117184 0 -0 0
-60.7782876492 104.4449117184 -9.5722293881 0.1034264519 1
-57.2227356434 104.4449117184 -9.6811557838 0.0293110248 1
-53.6671836376 104.4449117184 -9.8504449784 0.0950121482 1
-50.1116316319 104.4449117184 -9.8484144846 0.1874775764 1
-46.5560796261 104.4449117184 -9.7156670179 0.2573973911 1
-43.0005276203 104.4449117184 -9.777972962 0.2313761187 1
-39.4449756145 104.4449117184 -9.8416134761 0.2117754953 1
-35.8894236088 104.4449117184 -9.8863537878 0.2793057009 1
-32.333871603 104.4449117184 -9.3918154362 0.2403210353 1
-28.7783195972 104.4449117184 -9.6699035836 0.2702467883 1
-25.2227675915 104.4449117184 -9.8956234643 0.2830798525 1
-21.6672155857 104.4449117184 -9.723194021 0.3471335937 1
-18.1116635799 104.4449117184 -9.7755365127 0.3298475927 1
-14.5561115742 104.4449117184 -9.9094238053 0.1971257219 1
-11.0005595684 104.4449117184 -9.6706754004 0.3948468631 1
-7.4450075626 104.4449117184 -9.787403732 0.3793233142 1
-3.8894555569 104.4449117184 -9.444723545 0.4194793978 1
-0.3339035511 104.4449117184 -9.620666974 0.355267248 1
3.2216484547 104.4449117184 -9.7597099738 0.5766957999 1
6.7772004604 104.4449117184 -9.7017943638 0.3865316207 1
10.3327524662 104.4449117184 -9.6745974895 0.4265459421 1
13.888304472 104.4449117184 -9.3636076108 0.4462619934 1
17.4438564777 104.4449117184 0 -0 0
20.9994084835 104.4449117184 0 -0 0
24.5549604893 104.4449117184 0 -0 0
28.110512495 104.4449117184 0 -0 0
31.6660645008 104.4449117184 0 -0 0
35.2216165066 104.4449117184 -9.5862652836 0.249494794 1
38.7771685123 104.4449117184 -9.3980493957 0.1090853413 1
42.3327205181 104.4449117184 -9.385597944 0.0021626303 1
45.8882725239 104.4449117184 -9.2856104462 -0.0743289599 1
49.4438245296 104.4449117184 -9.4963980358 0.0734560793 1
52.9993765354 104.4449117184 0 -0 0
-124.778223753 100.8893597126 -9.723367286 0.2426117174 1
-121.2226717472 100.8893597126 -9.8385620077 0.3012475047 1
-117.6671197414 100.8893597126 -9.707345287 0.3516820904 1
-114.1115677357 100.8893597126 -9.7907981505 0.3937930881 1
-110.5560157299 100.8893597126 -9.82645995 0.1838664312 1
-107.0004637241 100.8893597126 -9.8559729905 0.3444519244 1
-103.4449117184 100.8893597126 -9.7518178255 0.2910655021 1
-99.8893597126 100.8893597126 -9.6304356823 0.4623857946 1
-96.3338077068 100.8893597126 -9.7209430082 0.2177228874 1
-92.7782557011 100.8893597126 -9.7014506977 0.3444444738 1
-89.2227036953 100.8893597126 -9.7699548028 0.2230946612 1
-85.6671516895 100.8893597126 -9.6888997261 0.3284863528 1
-82.1115996838 100.8893597126 -9.734648125 0.2391610951 1
-78.556047678 100.8893597126 -9.7040346371 0.2567942974 1
-75.0004956722 100.8893597126 -9.6876854393 0.1555662456 1
-71.4449436665 100.8893597126 0 -0 0
-67.8893916607 100.8893597126 0 -0 0
-64.3338396549 100.8893597126 -9.4541843858 -0.2289367384 1
-60.7782876492 100.8893597126 -9.6366696418 -0.0421699031 1
-57.2227356434 100.8893597126 -9.8133698522 0.084372601 1
-53.6671836376 100.8893597126 -9.7738461052 0.2140426175 1
-50.1116316319 100.8893597126 -9.9076975993 0.1464249628 1
-46.5560796261 100.8893597126 -9.8633353202 0.1568074149 1
-43.0005276203 100.8893597126 -9.898075665 0.1233681796 1
-39.4449756145 100.8893597126 -9.8677829321 0.0847219949 1
-35.8894236088 100.8893597126 -9.8888274676 0.0083582454 1
-32.333871603 100.8893597126 -9.4814263663 0.0989481876 1
-28.7783195972 100.8893597126 -9.736401538 0.4228590047 1
-25.2227675915 100.8893597126 -9.9119690822 0.176630571 1
-21.6672155857 100.8893597126 -9.9465669488 0.3873293466 1
-18.1116635799 100.8893597126 -9.8005890539 0.2392306114 1
-14.5561115742 100.8893597126 -9.8736216756 0.2895627909 1
-11.0005595684 100.8893597126 -9.8005102971 0.2462541527 1
-7.4450075626 100.8893597126 -9.4653521014 0.3886424822 1
-3.8894555569 100.8893597126 -9.6210364151 0.4120476636 1
-0.3339035511 100.8893597126 -9.6958568163 0.5055579955 1
3.2216484547 100.8893597126 -9.7081242634 0.4801066585 1
6.7772004604 100.8893597126 -9.6088606123 0.3522370126 1
10.3327524662 100.8893597126 -9.6385598053 0.3658926156 1
13.888304472 100.8893597126 -9.3863289504 0.3124916502 1
17.4438564777 100.8893597126 0 -0 0
20.9994084835 100.8893597126 0 -0 0
24.5549604893 100.8893597126 0 -0 0
28.110512495 100.8893597126 0 -0 0
31.6660645008 100.8893597126 0 -0 0
35.2216165066 100.8893597126 -9.4169538939 0.0891960249 1
38.7771685123 100.8893597126 -9.5029470226 0.2544785563 1
42.3327205181 100.8893597126 -9.4826599843 0.1891125745 1
45.8882725239 100.8893597126 -9.4890235346 0.0104183086 1
49.4438245296 100.8893597126 -9.190423534 0.0754545949 1
52.9993765354 100.8893597126 0 -0 0
-124.778223753 97.3338077068 -9.7577653966 0.2723783682 1
-121.2226717472 97.3338077068 -9.7399140917 0.3306697064 1
-117.6671197414 97.3338077068 -9.7892108428 0.3454886951 1
-114.1115677357 97.3338077068 -9.8344100919 0.3785265727 1
-110.5560157299 97.3338077068 -9.6824058692 0.1582382493 1
-107.0004637241 97.3338077068 -9.8621783111 0.248827263 1
-103.4449117184 97.3338077068 -9.8027040322 0.3506404868 1
-99.8893597126 97.3338077068 -9.7433600601 0.2895303037 1
-96.3338077068 97.3338077068 -9.7442464322 0.377822997 1
-92.7782557011 97.3338077068 -9.7761386443 0.2476560239 1
-89.2227036953 97.3338077068 -9.7237216916 0.0923982835 1
-85.6671516895 97.3338077068 -9.7792166037 0.2202306653 1
-82.1115996838 97.3338077068 -9.7829267654 0.2474335583 1
-78.556047678 97.3338077068 -9.7197208457 0.2835150734 1
-75.0004956722 97.3338077068 -9.6421325005 0.1874112036 1
-71.4449436665 97.3338077068 0 -0 0
-67.8893916607 97.3338077068 0 -0 0
-64.3338396549 97.3338077068 -9.5856352291 0.2242110837 1
-60.7782876492 97.3338077068 -9.7528323564 0.1820042018 1
-57.2227356434 97.3338077068 -9.7218522913 0.2033455409 1
-53.6671836376 97.3338077068 -9.7566577894 0.1153087849 1
-50.1116316319 97.3338077068 -9.7641117635 0.2199730276 1
-46.5560796261 97.3338077068 -9.6894767988 0.235218131 1
-43.0005276203 97.3338077068 -9.8801792539 0.4476320039 1
-39.4449756145 97.3338077068 -9.8678187306 0.3729932132 1
-35.8894236088 97.3338077068 -9.7633549822 0.030141705 1
-32.333871603 97.3338077068 -9.9955415129 0.1025478101 1
-28.7783195972 97.3338077068 -9.6904476554 0.2778626166 1
-25.2227675915 97.3338077068 -10.0809303621 0.1595745645 1
-21.6672155857 97.3338077068 -10.0615404355 0.1999668962 1
-18.1116635799 97.3338077068 -9.866796324 0.3116883979 1
-14.5561115742 97.3338077068 -9.9646208735 0.4253231084 1
-11.0005595684 97.3338077068 -9.7946178558 0.4823303302 1
-7.4450075626 97.3338077068 -9.3781582894 0.4746912776 1
-3.8894555569 97.3338077068 -9.9304182229 0.4471191002 1
-0.3339035511 97.3338077068 -9.7959824965 0.4753448249 1
3.2216484547 97.3338077068 -9.8895971365 0.4245160748 1
6.7772004604 97.3338077068 -9.5000888663 0.36143856 1
10.3327524662 97.3338077068 -9.6435794779 0.4384937976 1
13.888304472 97.3338077068 -9.463683173 0.380426536 1
17.4438564777 97.3338077068 0 -0 0
20.9994084835 97.3338077068 0 -0 0
24.5549604893 97.3338077068 0 -0 0
28.110512495 97.3338077068 0 -0 0
31.6660645008 97.3338077068 0 -0 0
35.2216165066 97.3338077068 -9.4907490247 0.2298036227 1
38.7771685123 97.3338077068 -9.4204349449 0.1026375638 1
42.3327205181 97.3338077068 -9.1403163037 0.0459755882 1
45.8882725239 97.3338077068 -9.3715584687 0.0055998955 1
49.4438245296 97.3338077068 -9.3018407928 0.0176125677 1
52.9993765354 97.3338077068 0 -0 0
-124.778223753 93.7782557011 -9.8801377276 0.3205209741 1
-121.2226717472 93.7782557011 -9.8210694043 0.4096949382 1
-117.6671197414 93.7782557011 -9.8228364207 0.446322314 1
-114.1115677357 93.7782557011 -9.7941109483 0.3803842937 1
-110.5560157299 93.7782557011 -9.699270566 0.4268466052 1
-107.0004637241 93.7782557011 -9.826361146 0.2429422498 1
-103.4449117184 93.7782557011 -9.8188649296 0.3570324745 1
-99.8893597126 93.7782557011 -9.7878562257 0.2747793546 1
-96.3338077068 93.7782557011 -9.7985707317 0.373861865 1
-92.7782557011 93.7782557011 -9.6218733852 0.3125336016 1
-89.2227036953 93.7782557011 -9.6677678421 0.1548055152 1
-85.6671516895 93.7782557011 -9.7182488093 0.1823963973 1
-82.1115996838 93.7782557011 -9.6468579091 0.212429602 1
-78.556047678 93.7782557011 -9.7686753626 0.2647869054 1
-75.0004956722 93.7782557011 -9.7856947092 0.3055446284 1
-71.4449436665 93.7782557011 0 -0 0
-67.8893916607 93.7782557011 0 -0 0
-64.3338396549 93.7782557011 -9.6119736542 0.2456600534 1
-60.7782876492 93.7782557011 -9.6414086539 0.126104755 1
-57.2227356434 93.7782557011 -9.8083716587 0.0584618959 1
-53.6671836376 93.7782557011 -9.8228514561 -0.0386195511 1
-50.1116316319 93.7782557011 -9.7923267486 0.1033797236 1
-46.5560796261 93.7782557011 -9.797254061 0.0882617555 1
-43.0005276203 93.7782557011 -9.7587491407 0.3100987857 1
-39.4449756145 93.7782557011 -9.8857416326 0.1790750526 1
-35.8894236088 93.7782557011 -9.7516631758 0.2570294491 1
-32.333871603 93.7782557011 -9.7158954126 0.0148536238 1
-28.7783195972 93.7782557011 -9.7905912349 0.2353696707 1
-25.2227675915 93.7782557011 -9.9244785275 0.2492254323 1
-21.6672155857 93.7782557011 -9.6685654338 0.217924657 1
-18.1116635799 93.7782557011 -9.8028715695 0.4800557798 1
-14.5561115742 93.7782557011 -9.7607610192 0.5036258135 1
-11.0005595684 93.7782557011 -10.0362867065 0.3328240407 1
-7.4450075626 93.7782557011 -9.8225700795 0.5306089705 1
-3.8894555569 93.7782557011 -9.8123961316 0.3473958405 1
-0.3339035511 93.7782557011 -9.7646000557 0.4590188962 1
3.2216484547 93.7782557011 -9.677127731 0.4595271014 1
6.7772004604 93.7782557011 -9.6822161369 0.4850368795 1
10.3327524662 93.7782557011 -9.4472308755 0.5880178073 1
13.888304472 93.7782557011 -9.6141537859 0.5087892621 1
17.4438564777 93.7782557011 0 -0 0
20.9994084835 93.7782557011 0 -0 0
24.5549604893 93.7782557011 0 -0 0
28.110512495 93.7782557011 0 -0 0
31.6660645008 93.7782557011 0 -0 0
35.2216165066 93.7782557011 -9.2405257525 0.2227306123 1
38.7771685123 93.7782557011 -9.1650173031 0.083180638 1
42.3327205181 93.7782557011 -9.0822345884 0.0176814771 1
45.8882725239 93.7782557011 -9.3902617791 0.0287152614 1
49.4438245296 93.7782557011 -9.3094938068 -0.0728167396 1
52.9993765354 93.7782557011 0 -0 0
-124.778223753 90.2227036953 -9.8469660753 0.3933784514 1
-121.2226717472 90.2227036953 -9.6852318067 0.2792959234 1
-117.6671197414 90.2227036953 -9.8179692499 0.3279279178 1
-114.1115677357 90.2227036953 -9.6998619581 0.3407563058 1
-110.5560157299 90.2227036953 -9.6905457435 0.3714724685 1
-107.0004637241 90.2227036953 -9.7763792106 0.4340250646 1
-103.4449117184 90.2227036953 -9.7540337557 0.3392873347 1
-99.8893597126 90.2227036953 -9.7095268506 0.3727081449 1
-96.3338077068 90.2227036953 -9.7888313782 0.2438576188 1
-92.7782557011 90.2227036953 -9.717465537 0.3411382763 1
-89.2227036953 90.2227036953 -9.7022819401 0.3123589495 1
-85.6671516895 90.2227036953 -9.7978819676 0.3493732181 1
-82.1115996838 90.2227036953 -9.629555754 0.4656323203 1
-78.556047678 90.2227036953 -9.6940031674 0.302340949 1
-75.0004956722 90.2227036953 -9.7240911326 0.2779498755 1
-71.4449436665 90.2227036953 0 -0 0
-67.8893916607 90.2227036953 0 -0 0
-64.3338396549 90.2227036953 -9.6852862205 0.0405831464 1
-60.7782876492 90.2227036953 -9.625260644 0.0466712855 1
-57.2227356434 90.2227036953 -9.8131579248 0.2524162913 1
-53.6671836376 90.2227036953 -9.7668252936 0.1658466158 1
-50.1116316319 90.2227036953 -9.847271079 0.0268538879 1
-46.5560796261 90.2227036953 -9.8095608865 0.1304965658 1
-43.0005276203 90.2227036953 -9.8344372988 0.0535569072 1
-39.4449756145 90.2227036953 -9.9237074267 0.1781834114 1
-35.8894236088 90.2227036953 -9.7054844783 -0.0607816419 1
-32.333871603 90.2227036953 -9.8435831123 0.2054524198 1
-28.7783195972 90.2227036953 -9.8929020586 0.4109272585 1
-25.2227675915 90.2227036953 -10.0125100256 0.0871289999 1
-21.6672155857 90.2227036953 -10.0349442609 0.3754116514 1
-18.1116635799 90.2227036953 -10.0824947587 0.2842970479 1
-14.5561115742 90.2227036953 -9.7685779906 0.3500953196 1
-11.0005595684 90.2227036953 -9.9992853253 0.3013994472 1
-7.4450075626 90.2227036953 -9.7125625676 0.5114382206 1
-3.8894555569 90.2227036953 -9.7137260205 0.5353387644 1
-0.3339035511 90.2227036953 -9.794710932 0.4842497142 1
3.2216484547 90.2227036953 -9.6909459712 0.7105080498 1
6.7772004604 90.2227036953 -9.6617629934 0.5376751568 1
10.3327524662 90.2227036953 -9.5167237365 0.5315441182 1
13.888304472 90.2227036953 -9.3150590494 0.547947148 1
17.4438564777 90.2227036953 0 -0 0
20.9994084835 90.2227036953 0 -0 0