TITLE = "B00002"
VARIABLES = "x", "y", "Vx", "Vy", "isValid"
ZONE T="Frame 0", I=51, J=39, F=POINT
-124.778223753 125.778223753 0.3000264609 0.2582852175 1
-121.2226717472 125.778223753 0.3250722451 0.3249796164 1
-117.6671197414 125.778223753 0.2392954963 0.2458712425 1
-114.1115677357 125.778223753 0.1737045877 0.3071894375 1
-110.5560157299 125.778223753 0.380019417 0.2600271525 1
-107.0004637241 125.778223753 0.2254381238 0.2797707017 1
-103.4449117184 125.778223753 0.2779735921 0.3263917797 1
-99.8893597126 125.778223753 0.2002087154 0.2664918337 1
-96.3338077068 125.778223753 0.2169857281 0.2245738796 1
-92.7782557011 125.778223753 0.4115351179 0.3067835267 1
-89.2227036953 125.778223753 0.2805276396 0.251547192 1
-85.6671516895 125.778223753 0.2135414602 0.2727109815 1
-82.1115996838 125.778223753 0.3584677726 0.3773822721 1
-78.556047678 125.778223753 0.2598193867 0.3558852428 1
-75.0004956722 125.778223753 0.2387940705 0.3066822168 1
-71.4449436665 125.778223753 0 -0 0
-67.8893916607 125.778223753 0 -0 0
-64.3338396549 125.778223753 0 -0 0
-60.7782876492 125.778223753 0 -0 0
-57.2227356434 125.778223753 0.3133124215 0.3679015184 1
-53.6671836376 125.778223753 0.4412412916 0.3530985047 1
-50.1116316319 125.778223753 0.4170515402 0.3489576865 1
-46.5560796261 125.778223753 0.3388358926 0.3389261273 1
-43.0005276203 125.778223753 0.3865513994 0.4105237193 1
-39.4449756145 125.778223753 0.4736770599 0.3996325475 1
-35.8894236088 125.778223753 0.4662843014 0.250476077 1
-32.333871603 125.778223753 0.5704360208 0.5821348974 1
-28.7783195972 125.778223753 0.3731046586 0.348963996 1
-25.2227675915 125.778223753 0.3851765113 0.4214281814 1
-21.6672155857 125.778223753 0.6743263212 0.3235295066 1
-18.1116635799 125.778223753 0.3930401551 0.3562805931 1
-14.5561115742 125.778223753 0.5435146163 0.4038561947 1
-11.0005595684 125.778223753 0.3320583098 0.3793921369 1
-7.4450075626 125.778223753 0.5770018775 0.4318044358 1
-3.8894555569 125.778223753 0.3108361239 0.4461456929 1
-0.3339035511 125.778223753 0.6072854818 0.3153116362 1
3.2216484547 125.778223753 0.3056242802 0.3343036396 1
6.7772004604 125.778223753 0.3284522547 0.3699291706 1
10.3327524662 125.778223753 0.504892232 0.2651410873 1
13.888304472 125.778223753 0 -0 0
17.4438564777 125.778223753 0 -0 0
20.9994084835 125.778223753 0 -0 0
24.5549604893 125.778223753 0 -0 0
28.110512495 125.778223753 0 -0 0
31.6660645008 125.778223753 0 -0 0
35.2216165066 125.778223753 0 -0 0
38.7771685123 125.778223753 0.3798751488 0.4510883987 1
42.3327205181 125.778223753 0.4694686719 0.4157890148 1
45.8882725239 125.778223753 0.4845515407 0.4690770805 1
49.4438245296 125.778223753 0.3184630497 0.5082228843 1
52.9993765354 125.778223753 0 -0 0
-124.778223753 122.2226717472 0.2920225764 0.2664968678 1
-121.2226717472 122.2226717472 0.2644862647 0.2813948147 1
-117.6671197414 122.2226717472 0.2859728452 0.2606402698 1
-114.1115677357 122.2226717472 0.2728645125 0.2961259852 1
-110.5560157299 122.2226717472 0.302680364 0.3400233976 1
-107.0004637241 122.2226717472 0.3330741384 0.2211060741 1
-103.4449117184 122.2226717472 0.2533012539 0.3185255629 1
-99.8893597126 122.2226717472 0.2072646319 0.2557574147 1
-96.3338077068 122.2226717472 0.3471909385 0.3624918429 1
-92.7782557011 122.2226717472 0.2794670405 0.2780593744 1
-89.2227036953 122.2226717472 0.2281282282 0.4321920446 1
-85.6671516895 122.2226717472 0.3830444392 0.371040201 1
-82.1115996838 122.2226717472 0.2804414322 0.3972321205 1
-78.556047678 122.2226717472 0.2235992194 0.2873948754 1
-75.0004956722 122.2226717472 0.3213330866 0.4329496314 1
-71.4449436665 122.2226717472 0 -0 0
-67.8893916607 122.2226717472 0 -0 0
-64.3338396549 122.2226717472 0 -0 0
-60.7782876492 122.2226717472 0.2635714775 0.3205978515 1
-57.2227356434 122.2226717472 0.2813909217 0.2814439706 1
-53.6671836376 122.2226717472 0.3889377755 0.4846221981 1
-50.1116316319 122.2226717472 0.3391934754 0.3469301237 1
-46.5560796261 122.2226717472 0.3551827411 0.3372286048 1
-43.0005276203 122.2226717472 0.4523842614 0.4352399779 1
-39.4449756145 122.2226717472 0.5772286614 0.4100279989 1
-35.8894236088 122.2226717472 0.3625538638 0.3471660809 1
-32.333871603 122.2226717472 0.2865432951 0.4834188298 1
-28.7783195972 122.2226717472 0.5793821679 0.3648171824 1
-25.2227675915 122.2226717472 0.4411869225 0.3785230824 1
-21.6672155857 122.2226717472 0.398189329 0.4958881807 1
-18.1116635799 122.2226717472 0.5830818585 0.4181967358 1
-14.5561115742 122.2226717472 0.502682477 0.3594644714 1
-11.0005595684 122.2226717472 0.4196026343 0.4344554974 1
-7.4450075626 122.2226717472 0.5542588798 0.3720661874 1
-3.8894555569 122.2226717472 0.5223662649 0.4863597254 1
-0.3339035511 122.2226717472 0.2747861563 0.4697851758 1
3.2216484547 122.2226717472 0.5679040341 0.3982787806 1
6.7772004604 122.2226717472 0.4631110284 0.3022267293 1
10.3327524662 122.2226717472 0.2940323741 0.3183653868 1
13.888304472 122.2226717472 0 -0 0
17.4438564777 122.2226717472 0 -0 0
20.9994084835 122.2226717472 0 -0 0
24.5549604893 122.2226717472 0 -0 0
28.110512495 122.2226717472 0 -0 0
31.6660645008 122.2226717472 0 -0 0
35.2216165066 122.2226717472 0 -0 0
38.7771685123 122.2226717472 0.4703288663 0.300833405 1
42.3327205181 122.2226717472 0.4653127735 0.4403921052 1
45.8882725239 122.2226717472 0.3543427952 0.3215099538 1
49.4438245296 122.2226717472 0.5753565314 0.5538249119 1
52.9993765354 122.2226717472 0 -0 0
-124.778223753 118.6671197414 0.2748891666 0.241014923 1
-121.2226717472 118.6671197414 0.1740606379 0.1972196036 1
-117.6671197414 118.6671197414 0.2584341842 0.32365196 1
-114.1115677357 118.6671197414 0.3150580259 0.2979485341 1
-110.5560157299 118.6671197414 0.24697433 0.3389478302 1
-107.0004637241 118.6671197414 0.3546854992 0.2875275091 1
-103.4449117184 118.6671197414 0.265566553 0.2172847803 1
-99.8893597126 118.6671197414 0.3050489751 0.2230117875 1
-96.3338077068 118.6671197414 0.3623066301 0.3005539302 1
-92.7782557011 118.6671197414 0.3558711024 0.2722459136 1
-89.2227036953 118.6671197414 0.3608105192 0.3332401765 1
-85.6671516895 118.6671197414 0.3214604399 0.2264232327 1
-82.1115996838 118.6671197414 0.2924870402 0.2605657865 1
-78.556047678 118.6671197414 0.3707942202 0.3935489419 1
-75.0004956722 118.6671197414 0.3073756347 0.2912731114 1
-71.4449436665 118.6671197414 0 -0 0
-67.8893916607 118.6671197414 0 -0 0
-64.3338396549 118.6671197414 0 -0 0
-60.7782876492 118.6671197414 0.4691774507 0.3966996618 1
-57.2227356434 118.6671197414 0.4945243455 0.4235842833 1
-53.6671836376 118.6671197414 0.4441884072 0.5441550523 1
-50.1116316319 118.6671197414 0.4321192841 0.3072320602 1
-46.5560796261 118.6671197414 0.5071116078 0.409482071 1
-43.0005276203 118.6671197414 0.3129383938 0.4150616778 1
-39.4449756145 118.6671197414 0.3117498819 0.403670445 1
-35.8894236088 118.6671197414 0.3437517271 0.3127186354 1
-32.333871603 118.6671197414 0.488992843 0.4301049444 1
-28.7783195972 118.6671197414 0.5714468376 0.4984835756 1
-25.2227675915 118.6671197414 0.4662553046 0.42614115 1
-21.6672155857 118.6671197414 0.4259775954 0.2574633723 1
-18.1116635799 118.6671197414 0.4321932528 0.370585716 1
-14.5561115742 118.6671197414 0.4695874336 0.4979095011 1
-11.0005595684 118.6671197414 0.5871300928 0.3699629778 1
-7.4450075626 118.6671197414 0.518772359 0.3532022758 1
-3.8894555569 118.6671197414 0.4283317527 0.3029490098 1
-0.3339035511 118.6671197414 0.4222574548 0.421590841 1
3.2216484547 118.6671197414 0.3665901951 0.3483541453 1
6.7772004604 118.6671197414 0.3146522941 0.2636395842 1
10.3327524662 118.6671197414 0.4354669855 0.3733794125 1
13.888304472 118.6671197414 0 -0 0
17.4438564777 118.6671197414 0 -0 0
20.9994084835 118.6671197414 0 -0 0
24.5549604893 118.6671197414 0 -0 0
28.110512495 118.6671197414 0 -0 0
31.6660645008 118.6671197414 0 -0 0
35.2216165066 118.6671197414 0 -0 0
38.7771685123 118.6671197414 0.3813730944 0.3772368852 1
42.3327205181 118.6671197414 0.4178584395 0.5786167501 1
45.8882725239 118.6671197414 0.5236493297 0.5079166725 1
49.4438245296 118.6671197414 0.5057922523 0.4011577 1
52.9993765354 118.6671197414 0 -0 0
-124.778223753 115.1115677357 0.3970024728 0.3252956504 1
-121.2226717472 115.1115677357 0.2942682642 0.2667388437 1
-117.6671197414 115.1115677357 0.3082559434 0.2290256531 1
-114.1115677357 115.1115677357 0.3042860409 0.2261232633 1
-110.5560157299 115.1115677357 0.3438998212 0.2794401692 1
-107.0004637241 115.1115677357 0.2614993903 0.273603596 1
-103.4449117184 115.1115677357 0.3901495564 0.2554905366 1
-99.8893597126 115.1115677357 0.2873862838 0.2693487146 1
-96.3338077068 115.1115677357 0.3927130011 0.3630776414 1
-92.7782557011 115.1115677357 0.2250950394 0.2661940569 1
-89.2227036953 115.1115677357 0.2340964505 0.2413086278 1
-85.6671516895 115.1115677357 0.3317387182 0.2872858912 1
-82.1115996838 115.1115677357 0.2552393874 0.2996857258 1
-78.556047678 115.1115677357 0.430886919 0.2513065363 1
-75.0004956722 115.1115677357 0.3394994187 0.3852504801 1
-71.4449436665 115.1115677357 0 -0 0
-67.8893916607 115.1115677357 0 -0 0
-64.3338396549 115.1115677357 0 -0 0
-60.7782876492 115.1115677357 0.498912845 0.321921033 1
-57.2227356434 115.1115677357 0.2865833447 0.3660369733 1
-53.6671836376 115.1115677357 0.4071269739 0.3888882392 1
-50.1116316319 115.1115677357 0.4584690305 0.3704829518 1
-46.5560796261 115.1115677357 0.3775741075 0.3105850642 1
-43.0005276203 115.1115677357 0.4079873473 0.3969756686 1
-39.4449756145 115.1115677357 0.4644952241 0.2490797099 1
-35.8894236088 115.1115677357 0.3702079742 0.4749228942 1
-32.333871603 115.1115677357 0.6975986453 0.4220507629 1
-28.7783195972 115.1115677357 0.5198678394 0.458455785 1
-25.2227675915 115.1115677357 0.4908055474 0.4975504864 1
-21.6672155857 115.1115677357 0.4978906621 0.4158809723 1
-18.1116635799 115.1115677357 0.5431294239 0.5366932921 1
-14.5561115742 115.1115677357 0.5095343195 0.4829971677 1
-11.0005595684 115.1115677357 0.4284297513 0.4501738352 1
-7.4450075626 115.1115677357 0.3564403889 0.4430486709 1
-3.8894555569 115.1115677357 0.2856522244 0.5384725248 1
-0.3339035511 115.1115677357 0.5501093356 0.3390409735 1
3.2216484547 115.1115677357 0.3712506964 0.3895489462 1
6.7772004604 115.1115677357 0.4526625952 0.3795002485 1
10.3327524662 115.1115677357 0.36600735 0.3426372287 1
13.888304472 115.1115677357 0.3429090516 0.4603794648 1
17.4438564777 115.1115677357 0 -0 0
20.9994084835 115.1115677357 0 -0 0
24.5549604893 115.1115677357 0 -0 0
28.110512495 115.1115677357 0 -0 0
31.6660645008 115.1115677357 0 -0 0
35.2216165066 115.1115677357 0 -0 0
38.7771685123 115.1115677357 0.4819207053 0.3435430663 1
42.3327205181 115.1115677357 0.4767425793 0.3953193145 1
45.8882725239 115.1115677357 0.433929035 0.4448827201 1
49.4438245296 115.1115677357 0.412920656 0.5670159615 1
52.9993765354 115.1115677357 0 -0 0
-124.778223753 111.5560157299 0.5891053225 0.2198700173 1
-121.2226717472 111.5560157299 0.1770209989 0.2681139331 1
-117.6671197414 111.5560157299 0.3436974699 0.1617437664 1
-114.1115677357 111.5560157299 0.3277965595 0.2674452609 1
-110.5560157299 111.5560157299 0.203828978 0.2155993622 1
-107.0004637241 111.5560157299 0.3582715518 0.3184210535 1
-103.4449117184 111.5560157299 0.2209984995 0.3256021755 1
-99.8893597126 111.5560157299 0.3237036218 0.1199486909 1
-96.3338077068 111.5560157299 0.2186879492 0.3177357574 1
-92.7782557011 111.5560157299 0.3664172434 0.267466136 1
-89.2227036953 111.5560157299 0.3102351558 0.2828092602 1
-85.6671516895 111.5560157299 0.3643920299 0.2773332455 1
-82.1115996838 111.5560157299 0.3312911021 0.3720696778 1
-78.556047678 111.5560157299 0.2919184921 0.2785953234 1
-75.0004956722 111.5560157299 0.2831966229 0.2460648679 1
-71.4449436665 111.5560157299 0 -0 0
-67.8893916607 111.5560157299 0 -0 0
-64.3338396549 111.5560157299 0 -0 0
-60.7782876492 111.5560157299 0.4900440227 0.3631758189 1
-57.2227356434 111.5560157299 0.4567988939 0.4386369471 1
-53.6671836376 111.5560157299 0.4508784849 0.4162872411 1
-50.1116316319 111.5560157299 0.3933187573 0.3564557599 1
-46.5560796261 111.5560157299 0.2880826103 0.4472899936 1
-43.0005276203 111.5560157299 0.3101994243 0.4326524587 1
-39.4449756145 111.5560157299 0.3843044139 0.4877474562 1
-35.8894236088 111.5560157299 0.5400817143 0.4584989223 1
-32.333871603 111.5560157299 0.5349377312 0.4461590279 1
-28.7783195972 111.5560157299 0.5692319813 0.5360490972 1
-25.2227675915 111.5560157299 0.4928484811 0.4971861019 1
-21.6672155857 111.5560157299 0.5507497717 0.5184866418 1
-18.1116635799 111.5560157299 0.3890163533 0.3673314712 1
-14.5561115742 111.5560157299 0.4063640173 0.4106781901 1
-11.0005595684 111.5560157299 0.4098814486 0.245748789 1
-7.4450075626 111.5560157299 0.4436781884 0.4497511886 1
-3.8894555569 111.5560157299 0.4113855247 0.3953811117 1
-0.3339035511 111.5560157299 0.3047494307 0.3338022809 1
3.2216484547 111.5560157299 0.3998468913 0.3783128554 1
6.7772004604 111.5560157299 0.4089251799 0.4123837225 1
10.3327524662 111.5560157299 0.3146572388 0.2892156121 1
13.888304472 111.5560157299 0 -0 0
17.4438564777 111.5560157299 0 -0 0
20.9994084835 111.5560157299 0 -0 0
24.5549604893 111.5560157299 0 -0 0
28.110512495 111.5560157299 0 -0 0
31.6660645008 111.5560157299 0 -0 0
35.2216165066 111.5560157299 0.4379367722 0.3968247778 1
38.7771685123 111.5560157299 0.5114004531 0.4268120148 1
42.3327205181 111.5560157299 0.4528933616 0.4705791877 1
45.8882725239 111.5560157299 0.5616821566 0.4458347377 1
49.4438245296 111.5560157299 0.3551322427 0.4693261937 1
52.9993765354 111.5560157299 0 -0 0
-124.778223753 108.0004637241 0.3833280532 0.252778416 1
-121.2226717472 108.0004637241 0.2883386147 0.24372324 1
-117.6671197414 108.0004637241 0.2429185781 0.3363564403 1
-114.1115677357 108.0004637241 0.3396985034 0.2479939622 1
-110.5560157299 108.0004637241 0.1983728091 0.2212405872 1
-107.0004637241 108.0004637241 0.3796567777 0.2298692235 1
-103.4449117184 108.0004637241 0.3080212839 0.2171183394 1
-99.8893597126 108.0004637241 0.2588453305 0.2686607112 1
-96.3338077068 108.0004637241 0.3401790318 0.279718928 1
-92.7782557011 108.0004637241 0.3669167226 0.3437378775 1
-89.2227036953 108.0004637241 0.2749813032 0.3277454347 1
-85.6671516895 108.0004637241 0.355138418 0.3134149396 1
-82.1115996838 108.0004637241 0.4173793654 0.3350321624 1
-78.556047678 108.0004637241 0.2447943326 0.3224973225 1
-75.0004956722 108.0004637241 0.3462107071 0.3869513587 1
-71.4449436665 108.0004637241 0 -0 0
-67.8893916607 108.0004637241 0 -0 0
-64.3338396549 108.0004637241 0 -0 0
-60.7782876492 108.0004637241 0.2411185598 0.403873378 1
-57.2227356434 108.0004637241 0.4274788075 0.3920616912 1
-53.6671836376 108.0004637241 0.2803733255 0.3055455681 1
-50.1116316319 108.0004637241 0.3400450334 0.3379627212 1
-46.5560796261 108.0004637241 0.3524603956 0.3828210115 1
-43.0005276203 108.0004637241 0.1818644532 0.3193786648 1
-39.4449756145 108.0004637241 0.2323274876 0.3532067953 1
-35.8894236088 108.0004637241 0.5968252798 0.3841153528 1
-32.333871603 108.0004637241 0.4339947701 0.4904388807 1
-28.7783195972 108.0004637241 0.5469940116 0.4064832713 1
-25.2227675915 108.0004637241 0.4522210648 0.3291862592 1
-21.6672155857 108.0004637241 0.4835798338 0.3203237688 1
-18.1116635799 108.0004637241 0.4388098093 0.39984179 1
-14.5561115742 108.0004637241 0.4774724669 0.3431346048 1
-11.0005595684 108.0004637241 0.4000800741 0.3516405864 1
-7.4450075626 108.0004637241 0.4137019146 0.3911507076 1
-3.8894555569 108.0004637241 0.2230658434 0.4118104982 1
-0.3339035511 108.0004637241 0.4916520041 0.4774598032 1
3.2216484547 108.0004637241 0.4156975943 0.3049005677 1
6.7772004604 108.0004637241 0.5012783684 0.2938650159 1
10.3327524662 108.0004637241 0.4207616124 0.2527062372 1
13.888304472 108.0004637241 0.1544957683 0.1074999242 1
17.4438564777 108.0004637241 0 -0 0
20.9994084835 108.0004637241 0 -0 0
24.5549604893 108.0004637241 0 -0 0
28.110512495 108.0004637241 0 -0 0
31.6660645008 108.0004637241 0 -0 0
35.2216165066 108.0004637241 0.4476228753 0.4913993558 1
38.7771685123 108.0004637241 0.5552659825 0.3601892578 1
42.3327205181 108.0004637241 0.5733960239 0.3496954498 1
45.8882725239 108.0004637241 0.5812215869 0.504429133 1
49.4438245296 108.0004637241 0.4206403896 0.4350579423 1
52.9993765354 108.0004637241 0 -0 0
-124.778223753 104.4449117184 0.4001555643 0.3029207065 1
-121.2226717472 104.4449117184 0.2934615886 0.2830374312 1
-117.6671197414 104.4449117184 0.2809015778 0.1888352476 1
-114.1115677357 104.4449117184 0.290830149 0.2634490464 1
-110.5560157299 104.4449117184 0.346630736 0.2602069731 1
-107.0004637241 104.4449117184 0.2974490101 0.2928805781 1
-103.4449117184 104.4449117184 0.2662776017 0.2876227108 1
-99.8893597126 104.4449117184 0.2852617965 0.3181141705 1
-96.3338077068 104.4449117184 0.3565248511 0.2825492732 1
-92.7782557011 104.4449117184 0.3201172112 0.2625079249 1
-89.2227036953 104.4449117184 0.2525860436 0.2803867947 1
-85.6671516895 104.4449117184 0.3199050377 0.3377847129 1
-82.1115996838 104.4449117184 0.2863573887 0.2796135013 1
-78.556047678 104.4449117184 0.370626862 0.3250043397 1
-75.0004956722 104.4449117184 0.2291735235 0.339399317 1
-71.4449436665 104.4449117184 0 -0 0
-67.8893916607 104.4449117184 0 -0 0
-64.3338396549 104.4449117184 0 -0 0
-60.7782876492 104.4449117184 0.3629302632 0.3499781465 1
-57.2227356434 104.4449117184 0.2242439289 0.3726535297 1
-53.6671836376 104.4449117184 0.3920692536 0.3306892166 1
-50.1116316319 104.4449117184 0.4375033412 0.3663002268 1
-46.5560796261 104.4449117184 0.2744697643 0.3664059444 1
-43.0005276203 104.4449117184 0.195391215 0.4286979719 1
-39.4449756145 104.4449117184 0.3607094778 0.4692729881 1
-35.8894236088 104.4449117184 0.4428185309 0.3328371743 1
-32.333871603 104.4449117184 0.5584472654 0.5922409175 1
-28.7783195972 104.4449117184 0.6546428465 0.4550947934 1
-25.2227675915 104.4449117184 0.4042347196 0.4213900559 1
-21.6672155857 104.4449117184 0.5382040356 0.4868993886 1
-18.1116635799 104.4449117184 0.4197107012 0.5146186533 1
-14.5561115742 104.4449117184 0.3890228865 0.4350414302 1
-11.0005595684 104.4449117184 0.4217764118 0.3479481226 1
-7.4450075626 104.4449117184 0.4456414703 0.2518325512 1
-3.8894555569 104.4449117184 0.5305991259 0.4513093652 1
-0.3339035511 104.4449117184 0.5246934392 0.4935847678 1
3.2216484547 104.4449117184 0.4551796807 0.3503005796 1
6.7772004604 104.4449117184 0.3891198111 0.3367104656 1
10.3327524662 104.4449117184 0.4708172928 0.3194354055 1
13.888304472 104.4449117184 0.5074441764 0.2726750711 1
17.4438564777 104.4449117184 0 -0 0
20.9994084835 104.4449117184 0 -0 0
24.5549604893 104.4449117184 0 -0 0
28.110512495 104.4449117184 0 -0 0
31.6660645008 104.4449117184 0 -0 0
35.2216165066 104.4449117184 0.4619274389 0.4893770062 1
38.7771685123 104.4449117184 0.5357214957 0.2712452322 1
42.3327205181 104.4449117184 0.4630664592 0.4992557503 1
45.8882725239 104.4449117184 0.4331876918 0.549081067 1
49.4438245296 104.4449117184 0.4142222465 0.4131383559 1
52.9993765354 104.4449117184 0 -0 0
-124.778223753 100.8893597126 0.2923371114 0.2545991303 1
-121.2226717472 100.8893597126 0.2990648224 0.3445908004 1
-117.6671197414 100.8893597126 0.2803074114 0.2822837822 1
-114.1115677357 100.8893597126 0.3172695932 0.220272035 1
-110.5560157299 100.8893597126 0.2276579471 0.188797234 1
-107.0004637241 100.8893597126 0.2788785347 0.3209752577 1
-103.4449117184 100.8893597126 0.2770498776 0.3273072157 1
-99.8893597126 100.8893597126 0.3168068746 0.246086884 1
-96.3338077068 100.8893597126 0.3678095832 0.2951625567 1
-92.7782557011 100.8893597126 0.2559032043 0.2276059721 1
-89.2227036953 100.8893597126 0.2981362303 0.2226403105 1
-85.6671516895 100.8893597126 0.4132155466 0.3413999861 1
-82.1115996838 100.8893597126 0.2792026234 0.2601081244 1
-78.556047678 100.8893597126 0.2647454238 0.2950564364 1
-75.0004956722 100.8893597126 0.3214678905 0.4181502424 1
-71.4449436665 100.8893597126 0 -0 0
-67.8893916607 100.8893597126 0 -0 0
-64.3338396549 100.8893597126 0.0567009988 0.1594956622 1
-60.7782876492 100.8893597126 0.4464093045 0.4164319568 1
-57.2227356434 100.8893597126 0.3673256763 0.4039877991 1
-53.6671836376 100.8893597126 0.4165801628 0.2356621001 1
-50.1116316319 100.8893597126 0.3765814585 0.3063543021 1
-46.5560796261 100.8893597126 0.3442981248 0.4438806292 1
-43.0005276203 100.8893597126 0.3657112736 0.290174342 1
-39.4449756145 100.8893597126 0.2800381168 0.3991097992 1
-35.8894236088 100.8893597126 0.3692892268 0.3404739224 1
-32.333871603 100.8893597126 0.3832413312 0.3458215769 1
-28.7783195972 100.8893597126 0.3300902397 0.4319534473 1
-25.2227675915 100.8893597126 0.3111870392 0.3998397316 1
-21.6672155857 100.8893597126 0.415827901 0.3910101535 1
-18.1116635799 100.8893597126 0.2728317121 0.2920525353 1
-14.5561115742 100.8893597126 0.3338462236 0.3863239444 1
-11.0005595684 100.8893597126 0.4709613372 0.4570408026 1
-7.4450075626 100.8893597126 0.5649310092 0.4624241438 1
-3.8894555569 100.8893597126 0.3563982361 0.4570607603 1
-0.3339035511 100.8893597126 0.4186222016 0.3550211553 1
3.2216484547 100.8893597126 0.4119950397 0.3337270592 1
6.7772004604 100.8893597126 0.3886383206 0.4008195379 1
10.3327524662 100.8893597126 0.308815609 0.3010888276 1
13.888304472 100.8893597126 0.4055929166 0.3871374664 1
17.4438564777 100.8893597126 0 -0 0
20.9994084835 100.8893597126 0 -0 0
24.5549604893 100.8893597126 0 -0 0
28.110512495 100.8893597126 0 -0 0
31.6660645008 100.8893597126 0 -0 0
35.2216165066 100.8893597126 0.3288308467 0.2522326 1
38.7771685123 100.8893597126 0.3153024852 0.4044382344 1
42.3327205181 100.8893597126 0.4836958211 0.4513198363 1
45.8882725239 100.8893597126 0.5313033282 0.4678259212 1
49.4438245296 100.8893597126 0.4523626033 0.4458863772 1
52.9993765354 100.8893597126 0 -0 0
-124.778223753 97.3338077068 0.1664173118 0.2289302947 1
-121.2226717472 97.3338077068 0.2917764837 0.2585475313 1
-117.6671197414 97.3338077068 0.2518597581 0.2169432845 1
-114.1115677357 97.3338077068 0.3164115019 0.3010530291 1
-110.5560157299 97.3338077068 0.2796645142 0.2241885978 1
-107.0004637241 97.3338077068 0.2315499878 0.2249430074 1
-103.4449117184 97.3338077068 0.213115972 0.3054181253 1
-99.8893597126 97.3338077068 0.2688480047 0.2620969352 1
-96.3338077068 97.3338077068 0.3120514847 0.2501898453 1
-92.7782557011 97.3338077068 0.3221534775 0.2074445868 1
-89.2227036953 97.3338077068 0.4125702329 0.3043456678 1
-85.6671516895 97.3338077068 0.2450709211 0.2480746208 1
-82.1115996838 97.3338077068 0.302838258 0.2881120323 1
-78.556047678 97.3338077068 0.2828044721 0.2747242919 1
-75.0004956722 97.3338077068 0.2615594423 0.2942412139 1
-71.4449436665 97.3338077068 0 -0 0
-67.8893916607 97.3338077068 0 -0 0
-64.3338396549 97.3338077068 0.1696576288 0.7458701259 1
-60.7782876492 97.3338077068 0.4365795149 0.3395941283 1
-57.2227356434 97.3338077068 0.33850093 0.5306423974 1
-53.6671836376 97.3338077068 0.3775883375 0.3410921633 1
-50.1116316319 97.3338077068 0.3292783286 0.3962456915 1
-46.5560796261 97.3338077068 0.3347436709 0.2768769035 1
-43.0005276203 97.3338077068 0.3119741598 0.333327883 1
-39.4449756145 97.3338077068 0.3765276712 0.279237885 1
-35.8894236088 97.3338077068 0.5920898029 0.5661546037 1
-32.333871603 97.3338077068 0.4360151508 0.456271089 1
-28.7783195972 97.3338077068 0.5216951316 0.3948150919 1
-25.2227675915 97.3338077068 0.5741182148 0.3067723396 1
-21.6672155857 97.3338077068 0.5797139309 0.3268377401 1
-18.1116635799 97.3338077068 0.3385553886 0.4830591439 1
-14.5561115742 97.3338077068 0.5452438205 0.4366033209 1
-11.0005595684 97.3338077068 0.4175499007 0.3329961199 1
-7.4450075626 97.3338077068 0.5349919212 0.4281597407 1
-3.8894555569 97.3338077068 0.3626320166 0.3808598774 1
-0.3339035511 97.3338077068 0.5197078199 0.4754983112 1
3.2216484547 97.3338077068 0.6811142185 0.3554193247 1
6.7772004604 97.3338077068 0.4019003857 0.3621143919 1
10.3327524662 97.3338077068 0.4623363926 0.3721140008 1
13.888304472 97.3338077068 0.4702365508 0.2994637301 1
17.4438564777 97.3338077068 0 -0 0
20.9994084835 97.3338077068 0 -0 0
24.5549604893 97.3338077068 0 -0 0
28.110512495 97.3338077068 0 -0 0
31.6660645008 97.3338077068 0 -0 0
35.2216165066 97.3338077068 0.4805692205 0.426931224 1
38.7771685123 97.3338077068 0.6576369477 0.2874161532 1
42.3327205181 97.3338077068 0.4514868365 0.3426060169 1
45.8882725239 97.3338077068 0.4579273984 0.5482953784 1
49.4438245296 97.3338077068 0.5599160799 0.3940603242 1
52.9993765354 97.3338077068 0 -0 0
-124.778223753 93.7782557011 0.3317204386 0.2349549445 1
-121.2226717472 93.7782557011 0.4248977768 0.1958482282 1
-117.6671197414 93.7782557011 0.3535595677 0.191189584 1
-114.1115677357 93.7782557011 0.2650070664 0.3643529647 1
-110.5560157299 93.7782557011 0.3926028758 0.2879432645 1
-107.0004637241 93.7782557011 0.2473473733 0.2206285662 1
-103.4449117184 93.7782557011 0.3206489092 0.2826325049 1
-99.8893597126 93.7782557011 0.3401890778 0.251423866 1
-96.3338077068 93.7782557011 0.3809147835 0.2966521567 1
-92.7782557011 93.7782557011 0.3259785302 0.1679107826 1
-89.2227036953 93.7782557011 0.3605616298 0.3715325205 1
-85.6671516895 93.7782557011 0.2818003676 0.328999346 1
-82.1115996838 93.7782557011 0.2682041231 0.3026590415 1
-78.556047678 93.7782557011 0.3014393402 0.3142507238 1
-75.0004956722 93.7782557011 0.3726269269 0.3384200029 1
-71.4449436665 93.7782557011 0 -0 0
-67.8893916607 93.7782557011 0 -0 0
-64.3338396549 93.7782557011 0.3100875762 0.4046477006 1
-60.7782876492 93.7782557011 0.3899176713 0.3440560148 1
-57.2227356434 93.7782557011 0.4397139464 0.357759543 1
-53.6671836376 93.7782557011 0.4249954174 0.4255676572 1
-50.1116316319 93.7782557011 0.2486530583 0.330424889 1
-46.5560796261 93.7782557011 0.3783014893 0.4073251189 1
-43.0005276203 93.7782557011 0.4658661743 0.3798630668 1
-39.4449756145 93.7782557011 0.3684031679 0.371078662 1
-35.8894236088 93.7782557011 0.4781792198 0.4389143858 1
-32.333871603 93.7782557011 0.5327151782 0.4377102568 1
-28.7783195972 93.7782557011 0.5439940036 0.5212364179 1
-25.2227675915 93.7782557011 0.5652695293 0.405711365 1
-21.6672155857 93.7782557011 0.2993295079 0.4982620721 1
-18.1116635799 93.7782557011 0.5237848272 0.3175811524 1
-14.5561115742 93.7782557011 0.4624081239 0.3717472447 1
-11.0005595684 93.7782557011 0.4341194386 0.3599157568 1
-7.4450075626 93.7782557011 0.4019572159 0.3857879953 1
-3.8894555569 93.7782557011 0.4238836039 0.4507762353 1
-0.3339035511 93.7782557011 0.3587174004 0.3203787644 1
3.2216484547 93.7782557011 0.4341374273 0.3296480605 1
6.7772004604 93.7782557011 0.5258792214 0.2480156875 1
10.3327524662 93.7782557011 0.5686902597 0.3296374776 1
13.888304472 93.7782557011 0.516026655 0.3563684561 1
17.4438564777 93.7782557011 0 -0 0
20.9994084835 93.7782557011 0 -0 0
24.5549604893 93.7782557011 0 -0 0
28.110512495 93.7782557011 0 -0 0
31.6660645008 93.7782557011 0 -0 0
35.2216165066 93.7782557011 0.4619283786 0.3953699694 1
38.7771685123 93.7782557011 0.4888029317 0.3673387875 1
42.3327205181 93.7782557011 0.4362038539 0.3828147468 1
45.8882725239 93.7782557011 0.5373568182 0.3269236119 1
49.4438245296 93.7782557011 0.4755820798 0.4056668406 1
52.9993765354 93.7782557011 0 -0 0
-124.778223753 90.2227036953 0.2112565953 0.2075747592 1
-121.2226717472 90.2227036953 0.3853754618 0.2461240026 1
-117.6671197414 90.2227036953 0.2184428634 0.1752748352 1
-114.1115677357 90.2227036953 0.2420522084 0.27076938 1
-110.5560157299 90.2227036953 0.3367474276 0.2147693728 1
-107.0004637241 90.2227036953 0.2275946508 0.2748204782 1
-103.4449117184 90.2227036953 0.2700921386 0.2291014341 1
-99.8893597126 90.2227036953 0.2127902276 0.2641017435 1
-96.3338077068 90.2227036953 0.3785399077 0.1941086648 1
-92.7782557011 90.2227036953 0.3770666184 0.2119622071 1
-89.2227036953 90.2227036953 0.2666356096 0.3294296894 1
-85.6671516895 90.2227036953 0.3426206719 0.2629607766 1
-82.1115996838 90.2227036953 0.3590250665 0.2181652009 1
-78.556047678 90.2227036953 0.2845536788 0.2038534105 1
-75.0004956722 90.2227036953 0.2705652612 0.3265622703 1
-71.4449436665 90.2227036953 0 -0 0
-67.8893916607 90.2227036953 0 -0 0
-64.3338396549 90.2227036953 0.3743587489 0.4086360618 1
-60.7782876492 90.2227036953 0.339750456 0.2765009964 1
-57.2227356434 90.2227036953 0.3889405946 0.408488527 1
-53.6671836376 90.2227036953 0.4204349506 0.3404346782 1
-50.1116316319 90.2227036953 0.3103704743 0.2827961937 1
-46.5560796261 90.2227036953 0.4550124567 0.3209573361 1
-43.0005276203 90.2227036953 0.442712075 0.534490652 1
-39.4449756145 90.2227036953 0.3226345652 0.37943957 1
-35.8894236088 90.2227036953 0.3850134937 0.4225825504 1
-32.333871603 90.2227036953 0.5779011819 0.3804766092 1
-28.7783195972 90.2227036953 0.5172001762 0.4379125634 1
-25.2227675915 90.2227036953 0.3850590473 0.4950590863 1
-21.6672155857 90.2227036953 0.4920194762 0.4097709206 1
-18.1116635799 90.2227036953 0.3048423056 0.3019208083 1
-14.5561115742 90.2227036953 0.3991688221 0.4138548639 1
-11.0005595684 90.2227036953 0.3618037052 0.3160050765 1
-7.4450075626 90.2227036953 0.4915709651 0.4263598344 1
-3.8894555569 90.2227036953 0.3618643614 0.4219562547 1
-0.3339035511 90.2227036953 0.5488498531 0.2499356084 1
3.2216484547 90.2227036953 0.3252527593 0.2734890854 1
6.7772004604 90.2227036953 0.4052047708 0.4573694333 1
10.3327524662 90.2227036953 0.439626598 0.3480426084 1
13.888304472 90.2227036953 0.4296483339 0.2541394098 1
17.4438564777 90.2227036953 0 -0 0
20.9994084835 90.2227036953 0 -0 0
24.5549604893 90.2227036953 0 -0 0
28.110512495 90.2227036953 0 -0 0
31.6660645008 90.2227036953 0 -0 0
35.2216165066 90.2227036953 0.4615572371 0.3279737847 1
38.7771685123 90.2227036953 0.5332935933 0.3681200014 1
42.3327205181 90.2227036953 0.4867225885 0.4003101246 1
45.8882725239 90.2227036953 0.4409226397 0.2917326081 1
49.4438245296 90.2227036953 0.4006145912 0.3759650075 1
52.9993765354 90.2227036953 0 -0 0