TITLE = "B00001"
VARIABLES = "x", "y", "Vx", "Vy", "isValid"
ZONE T="Frame 0", I=51, J=39, F=POINT
-124.778223753 125.778223753 -9.9964808669 -0.017828791 1
-121.2226717472 125.778223753 -9.9551084828 0.0781531008 1
-117.6671197414 125.778223753 -10.0320696373 0.0811065539 1
-114.1115677357 125.778223753 -9.9353920734 0.1264525379 1
-110.5560157299 125.778223753 -10.0236849009 -0.0438261678 1
-107.0004637241 125.778223753 -10.0097213186 0.0104448233 1
-103.4449117184 125.778223753 -9.9679007366 0.0412975847 1
-99.8893597126 125.778223753 -9.9609379186 -0.115806877 1
-96.3338077068 125.778223753 -9.9547877278 -0.2452159276 1
-92.7782557011 125.778223753 -9.8914407618 -0.0466972982 1
-89.2227036953 125.778223753 -10.0242641215 -0.1878706556 1
-85.6671516895 125.778223753 -10.0072777095 -0.1522758666 1
-82.1115996838 125.778223753 -10.1574690937 -0.0431771792 1
-78.556047678 125.778223753 -10.0120711354 -0.1177588377 1
-75.0004956722 125.778223753 -10.0101759601 -0.1791042061 1
-71.4449436665 125.778223753 0 -0 0
-67.8893916607 125.778223753 0 -0 0
-64.3338396549 125.778223753 0 -0 0
-60.7782876492 125.778223753 0 -0 0
-57.2227356434 125.778223753 -10.0530418598 -0.0331300533 1
-53.6671836376 125.778223753 -10.1705591915 -0.0149513581 1
-50.1116316319 125.778223753 -10.1089506031 0.0056391309 1
-46.5560796261 125.778223753 -10.4520532129 -0.115237199 1
-43.0005276203 125.778223753 -10.0527526075 -0.0655956799 1
-39.4449756145 125.778223753 -10.1845900751 -0.0040435895 1
-35.8894236088 125.778223753 -10.0584510207 -0.050091216 1
-32.333871603 125.778223753 -10.2767212232 -0.0125502976 1
-28.7783195972 125.778223753 -10.1478364199 0.3164351961 1
-25.2227675915 125.778223753 -10.31348347 0.0107212021 1
-21.6672155857 125.778223753 -10.3552209993 0.0353622607 1
-18.1116635799 125.778223753 -10.3980138699 0.1917728318 1
-14.5561115742 125.778223753 -10.4986042153 0.3021735237 1
-11.0005595684 125.778223753 -10.405666168 0.1164425809 1
-7.4450075626 125.778223753 -10.3836923021 0.060943373 1
-3.8894555569 125.778223753 -10.2863331338 0.0686032111 1
-0.3339035511 125.778223753 -10.3308808493 0.2512143326 1
3.2216484547 125.778223753 -10.4017662739 0.1943451143 1
6.7772004604 125.778223753 -10.2811530836 0.4221260294 1
10.3327524662 125.778223753 -10.1830586132 0.2836964378 1
13.888304472 125.778223753 0 -0 0
17.4438564777 125.778223753 0 -0 0
20.9994084835 125.778223753 0 -0 0
24.5549604893 125.778223753 0 -0 0
28.110512495 125.778223753 0 -0 0
31.6660645008 125.778223753 0 -0 0
35.2216165066 125.778223753 0 -0 0
38.7771685123 125.778223753 -10.1571454748 0.5057717576 1
42.3327205181 125.778223753 -10.2751890452 0.4076980056 1
45.8882725239 125.778223753 -10.1141829191 0.5061685845 1
49.4438245296 125.778223753 -9.8604492411 0.267008899 1
52.9993765354 125.778223753 0 -0 0
-124.778223753 122.2226717472 -9.9883767912 -0.0331419199 1
-121.2226717472 122.2226717472 -9.9977996855 0.1178749592 1
-117.6671197414 122.2226717472 -9.8846247179 -0.0406643615 1
-114.1115677357 122.2226717472 -10.0842868341 0.1148630818 1
-110.5560157299 122.2226717472 -9.9590047969 -0.0427336044 1
-107.0004637241 122.2226717472 -9.8468708512 0.0207978122 1
-103.4449117184 122.2226717472 -9.8192107436 0.0064955902 1
-99.8893597126 122.2226717472 -9.9243582444 -0.0520782985 1
-96.3338077068 122.2226717472 -9.9650619116 -0.0300155403 1
-92.7782557011 122.2226717472 -10.0202468082 -0.0571069208 1
-89.2227036953 122.2226717472 -9.9827299279 -0.0348874768 1
-85.6671516895 122.2226717472 -9.9736363803 -0.013940958 1
-82.1115996838 122.2226717472 -10.0126625274 -0.1103861487 1
-78.556047678 122.2226717472 -10.0604199409 -0.0386715989 1
-75.0004956722 122.2226717472 -10.0590195016 -0.0479027556 1
-71.4449436665 122.2226717472 0 -0 0
-67.8893916607 122.2226717472 0 -0 0
-64.3338396549 122.2226717472 0 -0 0
-60.7782876492 122.2226717472 0 -0 0
-57.2227356434 122.2226717472 -10.0533611828 -0.0891522556 1
-53.6671836376 122.2226717472 -10.2392344136 0.033952992 1
-50.1116316319 122.2226717472 -10.215254397 -0.0585379398 1
-46.5560796261 122.2226717472 -10.4745647731 0.0475809434 1
-43.0005276203 122.2226717472 -10.2171402646 -0.1233654276 1
-39.4449756145 122.2226717472 -10.3449539752 0.0499443301 1
-35.8894236088 122.2226717472 -10.3549059721 0.0937129181 1
-32.333871603 122.2226717472 -10.2420224047 0.1249324084 1
-28.7783195972 122.2226717472 -10.5321044983 0.1843734506 1
-25.2227675915 122.2226717472 -10.3941734015 0.0755910881 1
-21.6672155857 122.2226717472 -10.1697451324 -0.0603549232 1
-18.1116635799 122.2226717472 -10.4930833629 0.2724915364 1
-14.5561115742 122.2226717472 -10.5074099426 -0.0135382956 1
-11.0005595684 122.2226717472 -10.4024621977 0.1433507064 1
-7.4450075626 122.2226717472 -10.4990631527 0.2734293242 1
-3.8894555569 122.2226717472 -10.5393809116 0.3314030844 1
-0.3339035511 122.2226717472 -10.3157044121 0.1616348158 1
3.2216484547 122.2226717472 -10.2858484214 0.1548165568 1
6.7772004604 122.2226717472 -10.4088336237 0.4439742424 1
10.3327524662 122.2226717472 -10.3371169567 0.3205853891 1
13.888304472 122.2226717472 0 -0 0
17.4438564777 122.2226717472 0 -0 0
20.9994084835 122.2226717472 0 -0 0
24.5549604893 122.2226717472 0 -0 0
28.110512495 122.2226717472 0 -0 0
31.6660645008 122.2226717472 0 -0 0
35.2216165066 122.2226717472 0 -0 0
38.7771685123 122.2226717472 -10.2980915255 0.5360320929 1
42.3327205181 122.2226717472 -10.090535113 0.5326555736 1
45.8882725239 122.2226717472 -9.9822817301 0.3479283663 1
49.4438245296 122.2226717472 -9.8366410576 0.2891771958 1
52.9993765354 122.2226717472 0 -0 0
-124.778223753 118.6671197414 -9.8109197994 0.017254599 1
-121.2226717472 118.6671197414 -9.9270789342 0.1503694484 1
-117.6671197414 118.6671197414 -9.9554535808 0.0346071742 1
-114.1115677357 118.6671197414 -10.0267771797 -0.031121612 1
-110.5560157299 118.6671197414 -9.7936312478 -0.0168500195 1
-107.0004637241 118.6671197414 -9.7925651669 0.0527964565 1
-103.4449117184 118.6671197414 -9.8298536525 -0.0200824859 1
-99.8893597126 118.6671197414 -10.0533848099 -0.0323449323 1
-96.3338077068 118.6671197414 -9.9975483797 -0.123050143 1
-92.7782557011 118.6671197414 -9.9446159278 -0.1042106527 1
-89.2227036953 118.6671197414 -10.0794819528 0.0000642867 1
-85.6671516895 118.6671197414 -9.9322947829 -0.0789267354 1
-82.1115996838 118.6671197414 -10.2079250019 -0.1712010721 1
-78.556047678 118.6671197414 -10.0902902509 -0.0459399938 1
-75.0004956722 118.6671197414 -10.0009127274 -0.1060584732 1
-71.4449436665 118.6671197414 0 -0 0
-67.8893916607 118.6671197414 0 -0 0
-64.3338396549 118.6671197414 0 -0 0
-60.7782876492 118.6671197414 -10.234509005 0.2126942204 1
-57.2227356434 118.6671197414 -10.1799534469 -0.1684685799 1
-53.6671836376 118.6671197414 -10.3199408124 0.0111606993 1
-50.1116316319 118.6671197414 -10.2223525335 -0.0937735128 1
-46.5560796261 118.6671197414 -10.2208883728 -0.0653586543 1
-43.0005276203 118.6671197414 -10.2392558928 0.0675254455 1
-39.4449756145 118.6671197414 -10.2622127868 0.0079192119 1
-35.8894236088 118.6671197414 -10.1612100422 -0.0036216827 1
-32.333871603 118.6671197414 -9.9294588218 0.0397938722 1
-28.7783195972 118.6671197414 -10.2656809504 0.0106981981 1
-25.2227675915 118.6671197414 -10.2732093854 -0.246329352 1
-21.6672155857 118.6671197414 -10.4191228429 -0.1573271762 1
-18.1116635799 118.6671197414 -10.2893695668 0.1643418014 1
-14.5561115742 118.6671197414 -10.3479746569 0.1757609347 1
-11.0005595684 118.6671197414 -10.4480688343 -0.0193608584 1
-7.4450075626 118.6671197414 -10.5059042556 0.2003771475 1
-3.8894555569 118.6671197414 -10.618762048 0.1856737881 1
-0.3339035511 118.6671197414 -10.35466111 0.0556206992 1
3.2216484547 118.6671197414 -10.2490346247 0.2734109326 1
6.7772004604 118.6671197414 -10.4306628634 0.4120546891 1
10.3327524662 118.6671197414 -10.1932433006 0.4353195849 1
13.888304472 118.6671197414 0 -0 0
17.4438564777 118.6671197414 0 -0 0
20.9994084835 118.6671197414 0 -0 0
24.5549604893 118.6671197414 0 -0 0
28.110512495 118.6671197414 0 -0 0
31.6660645008 118.6671197414 0 -0 0
35.2216165066 118.6671197414 0 -0 0
38.7771685123 118.6671197414 -10.1998517129 0.4475379433 1
42.3327205181 118.6671197414 -9.9281378553 0.389054792 1
45.8882725239 118.6671197414 -9.8942101376 0.4386537276 1
49.4438245296 118.6671197414 -10.1529011987 0.3434595662 1
52.9993765354 118.6671197414 0 -0 0
-124.778223753 115.1115677357 -9.7891163346 0.0586478973 1
-121.2226717472 115.1115677357 -10.0405925561 -0.0673743029 1
-117.6671197414 115.1115677357 -9.9759332152 -0.0231971737 1
-114.1115677357 115.1115677357 -10.0147044767 -0.0001019861 1
-110.5560157299 115.1115677357 -9.8232423763 -0.0989508389 1
-107.0004637241 115.1115677357 -9.8687645283 -0.0485960393 1
-103.4449117184 115.1115677357 -9.9467416457 -0.1041542924 1
-99.8893597126 115.1115677357 -10.0652026272 -0.143038543 1
-96.3338077068 115.1115677357 -9.9261130893 -0.0388815937 1
-92.7782557011 115.1115677357 -9.8657760654 -0.1380504402 1
-89.2227036953 115.1115677357 -9.9601603741 -0.0509116237 1
-85.6671516895 115.1115677357 -9.7771188086 -0.0314303745 1
-82.1115996838 115.1115677357 -10.0890086629 -0.1163755034 1
-78.556047678 115.1115677357 -10.1013412633 -0.0912583794 1
-75.0004956722 115.1115677357 -10.0770548111 -0.2363512222 1
-71.4449436665 115.1115677357 0 -0 0
-67.8893916607 115.1115677357 0 -0 0
-64.3338396549 115.1115677357 0 -0 0
-60.7782876492 115.1115677357 -10.0976962549 -0.1642007887 1
-57.2227356434 115.1115677357 -10.1378887189 -0.1063139741 1
-53.6671836376 115.1115677357 -10.3156457024 0.0338970736 1
-50.1116316319 115.1115677357 -10.2269698304 -0.2254805227 1
-46.5560796261 115.1115677357 -10.2169806031 -0.0539262588 1
-43.0005276203 115.1115677357 -10.4053568685 0.1207876747 1
-39.4449756145 115.1115677357 -10.2560532884 0.0485246491 1
-35.8894236088 115.1115677357 -10.5312890073 0.000553634 1
-32.333871603 115.1115677357 -10.1608706719 -0.0925714199 1
-28.7783195972 115.1115677357 -10.3550756572 0.0631533574 1
-25.2227675915 115.1115677357 -10.3565183388 -0.0545204755 1
-21.6672155857 115.1115677357 -10.5131878286 0.1622808677 1
-18.1116635799 115.1115677357 -10.6389968204 0.1183550849 1
-14.5561115742 115.1115677357 -10.3703745255 0.0443016368 1
-11.0005595684 115.1115677357 -10.571092699 0.2049295149 1
-7.4450075626 115.1115677357 -10.4475955775 0.2696257953 1
-3.8894555569 115.1115677357 -10.4002784862 0.1798536487 1
-0.3339035511 115.1115677357 -10.5491574955 0.083474214 1
3.2216484547 115.1115677357 -10.37391715 0.3289031151 1
6.7772004604 115.1115677357 -10.4188665252 0.2289250144 1
10.3327524662 115.1115677357 -10.5056028318 0.3075363255 1
13.888304472 115.1115677357 0 -0 0
17.4438564777 115.1115677357 0 -0 0
20.9994084835 115.1115677357 0 -0 0
24.5549604893 115.1115677357 0 -0 0
28.110512495 115.1115677357 0 -0 0
31.6660645008 115.1115677357 0 -0 0
35.2216165066 115.1115677357 0 -0 0
38.7771685123 115.1115677357 -10.0654245782 0.5292289364 1
42.3327205181 115.1115677357 -10.1062843271 0.30419556 1
45.8882725239 115.1115677357 -9.954141206 0.5311122534 1
49.4438245296 115.1115677357 -10.151612451 0.3922405944 1
52.9993765354 115.1115677357 0 -0 0
-124.778223753 111.5560157299 -9.888967082 0.0334792514 1
-121.2226717472 111.5560157299 -9.9287958326 0.0456558121 1
-117.6671197414 111.5560157299 -9.9718765235 0.0196396117 1
-114.1115677357 111.5560157299 -9.9136895605 0.0049606239 1
-110.5560157299 111.5560157299 -9.8287646606 -0.1332706961 1
-107.0004637241 111.5560157299 -9.9447548262 -0.0942166597 1
-103.4449117184 111.5560157299 -9.7997800067 -0.0633937167 1
-99.8893597126 111.5560157299 -9.9431603588 -0.0639268298 1
-96.3338077068 111.5560157299 -9.8813197957 0.0289058607 1
-92.7782557011 111.5560157299 -10.0664455528 -0.1307347269 1
-89.2227036953 111.5560157299 -9.9506873619 0.0180857141 1
-85.6671516895 111.5560157299 -9.9608713333 -0.0079280902 1
-82.1115996838 111.5560157299 -9.9165498647 -0.1476690967 1
-78.556047678 111.5560157299 -10.1219490565 -0.0976860314 1
-75.0004956722 111.5560157299 -10.0081289991 -0.0596068062 1
-71.4449436665 111.5560157299 0 -0 0
-67.8893916607 111.5560157299 0 -0 0
-64.3338396549 111.5560157299 0 -0 0
-60.7782876492 111.5560157299 -10.4340873527 -0.2561227166 1
-57.2227356434 111.5560157299 -10.1802104805 -0.1200415546 1
-53.6671836376 111.5560157299 -10.2992735936 -0.1500554616 1
-50.1116316319 111.5560157299 -10.1641004171 -0.1186131813 1
-46.5560796261 111.5560157299 -10.188889481 -0.3459627798 1
-43.0005276203 111.5560157299 -10.2168180777 -0.1660842175 1
-39.4449756145 111.5560157299 -10.3328791244 -0.1001758765 1
-35.8894236088 111.5560157299 -10.3024525049 -0.256944159 1
-32.333871603 111.5560157299 -10.376782466 -0.0419510537 1
-28.7783195972 111.5560157299 -10.4659480621 0.2315890754 1
-25.2227675915 111.5560157299 -10.4982863242 0.2362114289 1
-21.6672155857 111.5560157299 -10.2878545722 0.0715164076 1
-18.1116635799 111.5560157299 -10.4166663464 0.0727751574 1
-14.5561115742 111.5560157299 -10.5155483849 0.1865500359 1
-11.0005595684 111.5560157299 -10.4219351769 0.5095769197 1
-7.4450075626 111.5560157299 -10.5775049353 0.2466860174 1
-3.8894555569 111.5560157299 -10.7136031463 0.3917497963 1
-0.3339035511 111.5560157299 -10.4009293038 0.1068439941 1
3.2216484547 111.5560157299 -10.4462624395 0.2530076834 1
6.7772004604 111.5560157299 -10.1160222486 0.4011229754 1
10.3327524662 111.5560157299 -10.1586282508 0.2805552269 1
13.888304472 111.5560157299 0 -0 0
17.4438564777 111.5560157299 0 -0 0
20.9994084835 111.5560157299 0 -0 0
24.5549604893 111.5560157299 0 -0 0
28.110512495 111.5560157299 0 -0 0
31.6660645008 111.5560157299 0 -0 0
35.2216165066 111.5560157299 0 -0 0
38.7771685123 111.5560157299 -10.1492024926 0.4345496029 1
42.3327205181 111.5560157299 -10.1214600483 0.3250912407 1
45.8882725239 111.5560157299 -9.9823132328 0.3531974653 1
49.4438245296 111.5560157299 -10.2194070288 0.5199479834 1
52.9993765354 111.5560157299 0 -0 0
-124.778223753 108.0004637241 -9.8803303238 -0.0419489002 1
-121.2226717472 108.0004637241 -9.9169551043 -0.0784602468 1
-117.6671197414 108.0004637241 -9.851245434 -0.1046969425 1
-114.1115677357 108.0004637241 -9.9304031875 0.0591088484 1
-110.5560157299 108.0004637241 -9.8756135069 -0.0530313286 1
-107.0004637241 108.0004637241 -9.9013268893 0.0965097246 1
-103.4449117184 108.0004637241 -9.9615300267 -0.1443964603 1
-99.8893597126 108.0004637241 -9.9784462734 0.0430109397 1
-96.3338077068 108.0004637241 -9.9402434929 -0.2381128465 1
-92.7782557011 108.0004637241 -9.9217979321 -0.117622132 1
-89.2227036953 108.0004637241 -9.9250763633 -0.1102558084 1
-85.6671516895 108.0004637241 -10.0010086675 -0.1175580637 1
-82.1115996838 108.0004637241 -9.9535863284 -0.1161862633 1
-78.556047678 108.0004637241 -9.8816276633 -0.2152876911 1
-75.0004956722 108.0004637241 -10.0621096325 -0.292314424 1
-71.4449436665 108.0004637241 0 -0 0
-67.8893916607 108.0004637241 0 -0 0
-64.3338396549 108.0004637241 0 -0 0
-60.7782876492 108.0004637241 -10.2965142414 -0.2843301168 1
-57.2227356434 108.0004637241 -10.1699620717 -0.2008097506 1
-53.6671836376 108.0004637241 -10.2419823103 -0.3050430683 1
-50.1116316319 108.0004637241 -10.1995567329 -0.2185408843 1
-46.5560796261 108.0004637241 -10.4744566614 -0.2257157191 1
-43.0005276203 108.0004637241 -10.2884953662 0.0099206375 1
-39.4449756145 108.0004637241 -10.605184374 -0.0625359163 1
-35.8894236088 108.0004637241 -10.4734127757 -0.1218740824 1
-32.333871603 108.0004637241 -10.4868186167 0.2271570806 1
-28.7783195972 108.0004637241 -10.6215829738 -0.1600822886 1
-25.2227675915 108.0004637241 -10.5063488736 0.0946395748 1
-21.6672155857 108.0004637241 -10.5455754926 -0.0932094004 1
-18.1116635799 108.0004637241 -10.745357892 0.0288886774 1
-14.5561115742 108.0004637241 -10.5857744003 0.0841127036 1
-11.0005595684 108.0004637241 -10.550899453 0.1690885325 1
-7.4450075626 108.0004637241 -10.5963192211 0.2407482686 1
-3.8894555569 108.0004637241 -10.5106525753 0.3959774261 1
-0.3339035511 108.0004637241 -10.458545638 0.2530685409 1
3.2216484547 108.0004637241 -10.3126608193 0.2444516062 1
6.7772004604 108.0004637241 -10.2870104424 0.2770786283 1
10.3327524662 108.0004637241 -10.4187655733 0.3534520378 1
13.888304472 108.0004637241 -10.0299016771 0.4131166978 1
17.4438564777 108.0004637241 0 -0 0
20.9994084835 108.0004637241 0 -0 0
24.5549604893 108.0004637241 0 -0 0
28.110512495 108.0004637241 0 -0 0
31.6660645008 108.0004637241 0 -0 0
35.2216165066 108.0004637241 -9.9947904594 0.4609162641 1
38.7771685123 108.0004637241 -10.0778731659 0.5484842157 1
42.3327205181 108.0004637241 -9.9338348365 0.5460963182 1
45.8882725239 108.0004637241 -9.9233379857 0.4696000078 1
49.4438245296 108.0004637241 -9.9650218172 0.4716165849 1
52.9993765354 108.0004637241 0 -0 0
-124.778223753 104.4449117184 -9.9620856201 -0.0488083806 1
-121.2226717472 104.4449117184 -9.8290216942 0.0359408128 1
-117.6671197414 104.4449117184 -9.8865241889 0.1115069006 1
-114.1115677357 104.4449117184 -9.925676347 -0.1302132203 1
-110.5560157299 104.4449117184 -9.9980066011 0.0255870135 1
-107.0004637241 104.4449117184 -9.7880137393 0.0677396718 1
-103.4449117184 104.4449117184 -10.0478610936 -0.1481948319 1
-99.8893597126 104.4449117184 -9.8775222856 -0.1278357155 1
-96.3338077068 104.4449117184 -9.8283200426 0.029771204 1
-92.7782557011 104.4449117184 -9.8541401047 -0.0947649928 1
-89.2227036953 104.4449117184 -9.9619617572 -0.1969148013 1
-85.6671516895 104.4449117184 -9.933280675 -0.0808812412 1
-82.1115996838 104.4449117184 -9.968706204 -0.1884302541 1
-78.556047678 104.4449117184 -9.9459598054 -0.2816368577 1
-75.0004956722 104.4449117184 -9.960063718 -0.0990051856 1
-71.4449436665 104.4449117184 0 -0 0
-67.8893916607 104.4449117184 0 -0 0
-64.3338396549 104.4449117184 0 -0 0
-60.7782876492 104.4449117184 -10.1547985219 -0.2548528973 1
-57.2227356434 104.4449117184 -10.1758466373 -0.3953683138 1
-53.6671836376 104.4449117184 -10.3270031504 -0.2446729307 1
-50.1116316319 104.4449117184 -10.2061035717 -0.1322059242 1
-46.5560796261 104.4449117184 -10.217130957 -0.0524467606 1
-43.0005276203 104.4449117184 -10.4574459065 -0.2204469781 1
-39.4449756145 104.4449117184 -10.2588921134 -0.242374015 1
-35.8894236088 104.4449117184 -10.4032003638 -0.1426185589 1
-32.333871603 104.4449117184 -10.5775428817 -0.3568206142 1
-28.7783195972 104.4449117184 -10.5052942483 0.0042367982 1
-25.2227675915 104.4449117184 -10.3500280617 0.1612281666 1
-21.6672155857 104.4449117184 -10.689220754 -0.0076202674 1
-18.1116635799 104.4449117184 -10.8356332432 0.0292237155 1
-14.5561115742 104.4449117184 -10.5402858989 0.1862571702 1
-11.0005595684 104.4449117184 -10.7118125028 0.1041666876 1
-7.4450075626 104.4449117184 -10.685492693 0.1189968187 1
-3.8894555569 104.4449117184 -10.5423135288 0.241763784 1
-0.3339035511 104.4449117184 -10.5061849162 0.0903626997 1
3.2216484547 104.4449117184 -10.5849990037 0.2606844587 1
6.7772004604 104.4449117184 -10.3254208545 0.3306367046 1
10.3327524662 104.4449117184 -10.3176711844 0.5543136963 1
13.888304472 104.4449117184 -10.2301294105 0.3505692924 1
17.4438564777 104.4449117184 0 -0 0
20.9994084835 104.4449117184 0 -0 0
24.5549604893 104.4449117184 0 -0 0
28.110512495 104.4449117184 0 -0 0
31.6660645008 104.4449117184 0 -0 0
35.2216165066 104.4449117184 -9.9516267158 0.5263044634 1
38.7771685123 104.4449117184 -10.1157115172 0.4432965311 1
42.3327205181 104.4449117184 -10.0750629798 0.4754031765 1
45.8882725239 104.4449117184 -9.9585057652 0.5750427124 1
49.4438245296 104.4449117184 -10.0938951649 0.4363547895 1
52.9993765354 104.4449117184 0 -0 0
-124.778223753 100.8893597126 -9.8464684755 -0.1340108647 1
-121.2226717472 100.8893597126 -9.9865754081 -0.1444112832 1
-117.6671197414 100.8893597126 -9.7792473904 -0.0706127124 1
-114.1115677357 100.8893597126 -9.8892491745 0.0417546008 1
-110.5560157299 100.8893597126 -9.9019605236 -0.0657215397 1
-107.0004637241 100.8893597126 -9.9864128827 -0.0016676396 1
-103.4449117184 100.8893597126 -9.8285305381 -0.1239781086 1
-99.8893597126 100.8893597126 -10.0665808713 -0.1158367352 1
-96.3338077068 100.8893597126 -9.8240628791 -0.0034053727 1
-92.7782557011 100.8893597126 -9.9317298818 -0.0401662583 1
-89.2227036953 100.8893597126 -9.8919927754 -0.0290712864 1
-85.6671516895 100.8893597126 -9.8947492638 -0.1673578404 1
-82.1115996838 100.8893597126 -9.8497046644 -0.1062545374 1
-78.556047678 100.8893597126 -10.0975480489 -0.1661846325 1
-75.0004956722 100.8893597126 -10.1012696662 -0.1187381406 1
-71.4449436665 100.8893597126 0 -0 0
-67.8893916607 100.8893597126 0 -0 0
-64.3338396549 100.8893597126 0 -0 0
-60.7782876492 100.8893597126 -10.1981405422 -0.2555529603 1
-57.2227356434 100.8893597126 -10.2915024444 -0.3591935658 1
-53.6671836376 100.8893597126 -10.2261006416 -0.2120138242 1
-50.1116316319 100.8893597126 -10.5615022675 -0.3312457945 1
-46.5560796261 100.8893597126 -10.2958791751 -0.1853819293 1
-43.0005276203 100.8893597126 -10.5587694062 -0.3090110691 1
-39.4449756145 100.8893597126 -10.3880955237 -0.2033176404 1
-35.8894236088 100.8893597126 -10.5522018042 -0.1146079164 1
-32.333871603 100.8893597126 -10.4594842759 -0.1332898372 1
-28.7783195972 100.8893597126 -10.6448871138 0.1910939347 1
-25.2227675915 100.8893597126 -10.6850258799 0.1158027602 1
-21.6672155857 100.8893597126 -10.5033926293 -0.0360626313 1
-18.1116635799 100.8893597126 -10.8127099998 0.0988845445 1
-14.5561115742 100.8893597126 -10.5589355115 -0.0581505212 1
-11.0005595684 100.8893597126 -10.5048847129 0.1265193805 1
-7.4450075626 100.8893597126 -10.7060439245 0.2245460687 1
-3.8894555569 100.8893597126 -10.5603244952 0.1502771888 1
-0.3339035511 100.8893597126 -10.6776313314 0.2924742422 1
3.2216484547 100.8893597126 -10.487057035 0.3357035866 1
6.7772004604 100.8893597126 -10.5887886382 0.4662070213 1
10.3327524662 100.8893597126 -10.5967817384 0.4037277226 1
13.888304472 100.8893597126 -10.3739873152 0.4166098756 1
17.4438564777 100.8893597126 0 -0 0
20.9994084835 100.8893597126 0 -0 0
24.5549604893 100.8893597126 0 -0 0
28.110512495 100.8893597126 0 -0 0
31.6660645008 100.8893597126 0 -0 0
35.2216165066 100.8893597126 -10.0143328878 0.5568668042 1
38.7771685123 100.8893597126 -10.1632118971 0.6847050368 1
42.3327205181 100.8893597126 -9.7512514924 0.6226591691 1
45.8882725239 100.8893597126 -9.9517541586 0.3612296755 1
49.4438245296 100.8893597126 -10.0131579794 0.3742461177 1
52.9993765354 100.8893597126 0 -0 0
-124.778223753 97.3338077068 -9.8871950538 -0.0501452495 1
-121.2226717472 97.3338077068 -9.6918001246 0.0076667608 1
-117.6671197414 97.3338077068 -9.9055790411 -0.0171049764 1
-114.1115677357 97.3338077068 -9.8201987836 0.0337845962 1
-110.5560157299 97.3338077068 -9.8281260145 -0.0682969266 1
-107.0004637241 97.3338077068 -9.7783903731 -0.0363167703 1
-103.4449117184 97.3338077068 -9.906494052 -0.0700525602 1
-99.8893597126 97.3338077068 -10.0048197811 -0.0728889968 1
-96.3338077068 97.3338077068 -9.8850185019 -0.1690814511 1
-92.7782557011 97.3338077068 -9.8820758611 -0.1337044963 1
-89.2227036953 97.3338077068 -9.9129986485 -0.2929516382 1
-85.6671516895 97.3338077068 -10.0392501104 -0.1745660574 1
-82.1115996838 97.3338077068 -9.9745714384 -0.1736824597 1
-78.556047678 97.3338077068 -10.0121756671 -0.239417547 1
-75.0004956722 97.3338077068 -10.0473735174 -0.288782472 1
-71.4449436665 97.3338077068 0 -0 0
-67.8893916607 97.3338077068 0 -0 0
-64.3338396549 97.3338077068 0 -0 0
-60.7782876492 97.3338077068 -10.1512473057 -0.3770910956 1
-57.2227356434 97.3338077068 -10.2506727663 -0.3283856023 1
-53.6671836376 97.3338077068 -10.2711273417 -0.3491624542 1
-50.1116316319 97.3338077068 -10.4672224905 -0.2211895071 1
-46.5560796261 97.3338077068 -10.2305403778 -0.160508929 1
-43.0005276203 97.3338077068 -10.4438954394 -0.4140984283 1
-39.4449756145 97.3338077068 -10.5489677632 -0.2146219723 1
-35.8894236088 97.3338077068 -10.288056476 -0.277339376 1
-32.333871603 97.3338077068 -10.4161895097 -0.3069610204 1
-28.7783195972 97.3338077068 -10.354588797 -0.1726526361 1
-25.2227675915 97.3338077068 -10.6292954134 -0.0090076311 1
-21.6672155857 97.3338077068 -10.528360686 -0.082074116 1
-18.1116635799 97.3338077068 -10.6784110238 -0.2280217275 1
-14.5561115742 97.3338077068 -10.592768005 -0.0863065338 1
-11.0005595684 97.3338077068 -10.8540680645 0.0764128774 1
-7.4450075626 97.3338077068 -10.8236507526 0.2097452701 1
-3.8894555569 97.3338077068 -10.6593196572 0.328089414 1
-0.3339035511 97.3338077068 -10.6765709784 0.2722857842 1
3.2216484547 97.3338077068 -10.5437934408 0.2572620949 1
6.7772004604 97.3338077068 -10.7481738059 0.3185668208 1
10.3327524662 97.3338077068 -10.4881832574 0.4846134722 1
13.888304472 97.3338077068 -10.3921472036 0.6751808326 1
17.4438564777 97.3338077068 0 -0 0
20.9994084835 97.3338077068 0 -0 0
24.5549604893 97.3338077068 0 -0 0
28.110512495 97.3338077068 0 -0 0
31.6660645008 97.3338077068 0 -0 0
35.2216165066 97.3338077068 -10.310448469 0.7299897997 1
38.7771685123 97.3338077068 -9.85894785 0.5052819887 1
42.3327205181 97.3338077068 -10.1149583157 0.622433683 1
45.8882725239 97.3338077068 -10.0459795218 0.5652667549 1
49.4438245296 97.3338077068 -10.0079185036 0.3965527535 1
52.9993765354 97.3338077068 0 -0 0
-124.778223753 93.7782557011 -9.7912599518 0.0352313498 1
-121.2226717472 93.7782557011 -9.9719803393 -0.0737673366 1
-117.6671197414 93.7782557011 -9.8833910998 -0.0752673126 1
-114.1115677357 93.7782557011 -9.7991936264 -0.0791200924 1
-110.5560157299 93.7782557011 -9.8273398783 -0.1429618446 1
-107.0004637241 93.7782557011 -9.8225629198 -0.1462585555 1
-103.4449117184 93.7782557011 -9.7882235188 -0.0788513963 1
-99.8893597126 93.7782557011 -9.8756271103 -0.0764782321 1
-96.3338077068 93.7782557011 -9.7094130112 -0.1852862017 1
-92.7782557011 93.7782557011 -9.7529755506 -0.161456897 1
-89.2227036953 93.7782557011 -9.8962442112 -0.3242415621 1
-85.6671516895 93.7782557011 -9.95443547 -0.0512453054 1
-82.1115996838 93.7782557011 -10.0475904566 -0.2008043809 1
-78.556047678 93.7782557011 -10.0385377193 -0.2785217574 1
-75.0004956722 93.7782557011 -10.0673469603 -0.2319516028 1
-71.4449436665 93.7782557011 0 -0 0
-67.8893916607 93.7782557011 0 -0 0
-64.3338396549 93.7782557011 -10.0980850272 -0.1019700215 1
-60.7782876492 93.7782557011 -10.0128851944 -0.3781258527 1
-57.2227356434 93.7782557011 -10.1771418288 -0.3054183266 1
-53.6671836376 93.7782557011 -10.354638199 -0.3440040845 1
-50.1116316319 93.7782557011 -10.2159080785 -0.4068499827 1
-46.5560796261 93.7782557011 -10.3838104373 -0.3850114353 1
-43.0005276203 93.7782557011 -10.3766106329 -0.380451237 1
-39.4449756145 93.7782557011 -10.3400896683 -0.2459136637 1
-35.8894236088 93.7782557011 -10.1926719557 -0.2896474992 1
-32.333871603 93.7782557011 -10.7818086915 0.0067425674 1
-28.7783195972 93.7782557011 -10.6342814354 -0.171530374 1
-25.2227675915 93.7782557011 -10.6741058902 -0.1180374175 1
-21.6672155857 93.7782557011 -10.6128266485 -0.0729774919 1
-18.1116635799 93.7782557011 -10.8135634372 -0.1206343786 1
-14.5561115742 93.7782557011 -10.949370248 0.0806774188 1
-11.0005595684 93.7782557011 -10.8096570994 0.0495778425 1
-7.4450075626 93.7782557011 -10.6732495889 0.2730470628 1
-3.8894555569 93.7782557011 -10.7178416946 0.1921908918 1
-0.3339035511 93.7782557011 -10.7300003141 0.2914364422 1
3.2216484547 93.7782557011 -10.7147766228 0.3408750004 1
6.7772004604 93.7782557011 -10.6794162471 0.4448785137 1
10.3327524662 93.7782557011 -10.6232955764 0.3144612641 1
13.888304472 93.7782557011 -10.4649464187 0.6603322653 1
17.4438564777 93.7782557011 0 -0 0
20.9994084835 93.7782557011 0 -0 0
24.5549604893 93.7782557011 0 -0 0
28.110512495 93.7782557011 0 -0 0
31.6660645008 93.7782557011 0 -0 0
35.2216165066 93.7782557011 -10.1518544492 0.6690536423 1
38.7771685123 93.7782557011 -9.9112452355 0.6632213873 1
42.3327205181 93.7782557011 -9.8840984792 0.5868796372 1
45.8882725239 93.7782557011 -9.9380705209 0.3701983757 1
49.4438245296 93.7782557011 -9.9082438851 0.6377008695 1
52.9993765354 93.7782557011 0 -0 0
-124.778223753 90.2227036953 -9.9371010962 -0.1106082787 1
-121.2226717472 90.2227036953 -9.7883753047 0.0393273081 1
-117.6671197414 90.2227036953 -9.9568697714 -0.0036175151 1
-114.1115677357 90.2227036953 -9.8699523242 -0.1425652862 1
-110.5560157299 90.2227036953 -9.7645635412 -0.1050113992 1
-107.0004637241 90.2227036953 -9.8599673927 -0.0505813485 1
-103.4449117184 90.2227036953 -9.8792864381 -0.1314816301 1
-99.8893597126 90.2227036953 -9.8450401133 -0.1365632342 1
-96.3338077068 90.2227036953 -9.8571035087 -0.057633372 1
-92.7782557011 90.2227036953 -9.8798269962 -0.1220157104 1
-89.2227036953 90.2227036953 -9.9070897399 -0.2794971112 1
-85.6671516895 90.2227036953 -9.8905006919 -0.3363285622 1
-82.1115996838 90.2227036953 -9.7730542413 -0.3298424019 1
-78.556047678 90.2227036953 -10.0008296747 -0.197796363 1
-75.0004956722 90.2227036953 -9.953350774 -0.4267405519 1
-71.4449436665 90.2227036953 0 -0 0
-67.8893916607 90.2227036953 0 -0 0
-64.3338396549 90.2227036953 -9.8496316353 -0.5622414642 1
-60.7782876492 90.2227036953 -10.2469418414 -0.3995494501 1
-57.2227356434 90.2227036953 -10.2770555816 -0.4741643229 1
-53.6671836376 90.2227036953 -10.1989037673 -0.4821556332 1
-50.1116316319 90.2227036953 -10.2473026908 -0.3116495788 1
-46.5560796261 90.2227036953 -10.5125584901 -0.5515352366 1
-43.0005276203 90.2227036953 -10.3321431062 -0.4804348864 1
-39.4449756145 90.2227036953 -10.4951482233 -0.2988239205 1
-35.8894236088 90.2227036953 -10.2968271207 -0.3380792007 1
-32.333871603 90.2227036953 -10.4234566153 -0.3207690357 1
-28.7783195972 90.2227036953 -10.3200968941 -0.4325509251 1
-25.2227675915 90.2227036953 -10.5112303639 -0.082887487 1
-21.6672155857 90.2227036953 -10.4478590548 -0.0348600993 1
-18.1116635799 90.2227036953 -10.6466305032 -0.0523955855 1
-14.5561115742 90.2227036953 -10.8102828581 0.1546868766 1
-11.0005595684 90.2227036953 -10.9378094643 0.0524053853 1