TITLE = "B00002"
VARIABLES = "x", "y", "Vx", "Vy", "isValid"
ZONE T="Frame 0", I=51, J=39, F=POINT
-124.778223753 125.778223753 0.2327619925 0.2939961281 1
-121.2226717472 125.778223753 0.1600791226 0.2372034962 1
-117.6671197414 125.778223753 0.2875650304 0.2871454491 1
-114.1115677357 125.778223753 0.2914404919 0.2864208864 1
-110.5560157299 125.778223753 0.3855697137 0.2468890847 1
-107.0004637241 125.778223753 0.2157344122 0.3324142816 1
-103.4449117184 125.778223753 0.329566149 0.2624289667 1
-99.8893597126 125.778223753 0.3316315463 0.3612816058 1
-96.3338077068 125.778223753 0.3038888336 0.26687367 1
-92.7782557011 125.778223753 0.3299607608 0.3821973113 1
-89.2227036953 125.778223753 0.3349281676 0.2834890075 1
-85.6671516895 125.778223753 0.2104711975 0.3547617725 1
-82.1115996838 125.778223753 0.2914844794 0.1858454869 1
-78.556047678 125.778223753 0.3021161565 0.278521019 1
-75.0004956722 125.778223753 0.2828693346 0.3105207163 1
-71.4449436665 125.778223753 0 -0 0
-67.8893916607 125.778223753 0 -0 0
-64.3338396549 125.778223753 0 -0 0
-60.7782876492 125.778223753 0 -0 0
-57.2227356434 125.778223753 0.4551060252 0.3692746836 1
-53.6671836376 125.778223753 0.286400705 0.3984631879 1
-50.1116316319 125.778223753 0.3569052107 0.3779648935 1
-46.5560796261 125.778223753 0.4114973057 0.3347408517 1
-43.0005276203 125.778223753 0.3243711529 0.342523546 1
-39.4449756145 125.778223753 0.3048566697 0.3958724021 1
-35.8894236088 125.778223753 0.3533129828 0.4389149675 1
-32.333871603 125.778223753 0.3634865279 0.4430894812 1
-28.7783195972 125.778223753 0.3484685888 0.483667048 1
-25.2227675915 125.778223753 0.5510225119 0.4755815875 1
-21.6672155857 125.778223753 0.4911420537 0.5098810284 1
-18.1116635799 125.778223753 0.3536381902 0.3942684928 1
-14.5561115742 125.778223753 0.422640186 0.4838234877 1
-11.0005595684 125.778223753 0.5425489951 0.5026428749 1
-7.4450075626 125.778223753 0.371092355 0.3010735909 1
-3.8894555569 125.778223753 0.4151911343 0.4261003396 1
-0.3339035511 125.778223753 0.3132471786 0.41435224 1
3.2216484547 125.778223753 0.4946778318 0.327507889 1
6.7772004604 125.778223753 0.3674985386 0.3485145004 1
10.3327524662 125.778223753 0.350728238 0.3677201987 1
13.888304472 125.778223753 0 -0 0
17.4438564777 125.778223753 0 -0 0
20.9994084835 125.778223753 0 -0 0
24.5549604893 125.778223753 0 -0 0
28.110512495 125.778223753 0 -0 0
31.6660645008 125.778223753 0 -0 0
35.2216165066 125.778223753 0 -0 0
38.7771685123 125.778223753 0.4423687221 0.3597025988 1
42.3327205181 125.778223753 0.4694462531 0.2745359021 1
45.8882725239 125.778223753 0.4401540001 0.3638936022 1
49.4438245296 125.778223753 0.3361219598 0.2710137051 1
52.9993765354 125.778223753 0 -0 0
-124.778223753 122.2226717472 0.2386461777 0.3287781781 1
-121.2226717472 122.2226717472 0.3160909036 0.3015483915 1
-117.6671197414 122.2226717472 0.2739456959 0.2917104578 1
-114.1115677357 122.2226717472 0.2799575701 0.1991785002 1
-110.5560157299 122.2226717472 0.1841568358 0.2714641851 1
-107.0004637241 122.2226717472 0.3404295098 0.3076720915 1
-103.4449117184 122.2226717472 0.2514498871 0.2863071589 1
-99.8893597126 122.2226717472 0.4305518893 0.2629423851 1
-96.3338077068 122.2226717472 0.2940400708 0.3098610162 1
-92.7782557011 122.2226717472 0.4384538375 0.2773596469 1
-89.2227036953 122.2226717472 0.3535741332 0.3283033104 1
-85.6671516895 122.2226717472 0.3450282139 0.3366959672 1
-82.1115996838 122.2226717472 0.3575039862 0.3024731352 1
-78.556047678 122.2226717472 0.1591488638 0.3948153157 1
-75.0004956722 122.2226717472 0.3308853031 0.2893030948 1
-71.4449436665 122.2226717472 0 -0 0
-67.8893916607 122.2226717472 0 -0 0
-64.3338396549 122.2226717472 0 -0 0
-60.7782876492 122.2226717472 0 -0 0
-57.2227356434 122.2226717472 0.3652228471 0.3450709037 1
-53.6671836376 122.2226717472 0.4585406723 0.3722234325 1
-50.1116316319 122.2226717472 0.4698276419 0.3440372876 1
-46.5560796261 122.2226717472 0.3856507526 0.3205625675 1
-43.0005276203 122.2226717472 0.4534132013 0.4159172184 1
-39.4449756145 122.2226717472 0.4686001543 0.3755623633 1
-35.8894236088 122.2226717472 0.3103833394 0.3810918968 1
-32.333871603 122.2226717472 0.4680099257 0.3868970791 1
-28.7783195972 122.2226717472 0.5121839044 0.4856560155 1
-25.2227675915 122.2226717472 0.5483617847 0.4428555824 1
-21.6672155857 122.2226717472 0.5339001997 0.46122798 1
-18.1116635799 122.2226717472 0.603515805 0.3381942931 1
-14.5561115742 122.2226717472 0.5473088598 0.3641190883 1
-11.0005595684 122.2226717472 0.3352105287 0.4149720472 1
-7.4450075626 122.2226717472 0.4751814492 0.3490702729 1
-3.8894555569 122.2226717472 0.4599329227 0.3716752672 1
-0.3339035511 122.2226717472 0.5363374992 0.5225948387 1
3.2216484547 122.2226717472 0.3746864175 0.3780778379 1
6.7772004604 122.2226717472 0.410161259 0.3407927308 1
10.3327524662 122.2226717472 0.4003356758 0.3317570202 1
13.888304472 122.2226717472 0 -0 0
17.4438564777 122.2226717472 0 -0 0
20.9994084835 122.2226717472 0 -0 0
24.5549604893 122.2226717472 0 -0 0
28.110512495 122.2226717472 0 -0 0
31.6660645008 122.2226717472 0 -0 0
35.2216165066 122.2226717472 0 -0 0
38.7771685123 122.2226717472 0.4623851233 0.337549427 1
42.3327205181 122.2226717472 0.4686602959 0.3016683614 1
45.8882725239 122.2226717472 0.5182716268 0.4129538144 1
49.4438245296 122.2226717472 0.5101782459 0.4203811186 1
52.9993765354 122.2226717472 0 -0 0
-124.778223753 118.6671197414 0.3222012014 0.3502766393 1
-121.2226717472 118.6671197414 0.2181942872 0.2844642048 1
-117.6671197414 118.6671197414 0.2864055154 0.3024906988 1
-114.1115677357 118.6671197414 0.2348095353 0.2966037392 1
-110.5560157299 118.6671197414 0.2900310807 0.2808311666 1
-107.0004637241 118.6671197414 0.3855454154 0.2862354499 1
-103.4449117184 118.6671197414 0.2301035474 0.3277654819 1
-99.8893597126 118.6671197414 0.2898208089 0.2799886701 1
-96.3338077068 118.6671197414 0.3254533878 0.25286789 1
-92.7782557011 118.6671197414 0.2138805843 0.3721855308 1
-89.2227036953 118.6671197414 0.3275440902 0.3120997903 1
-85.6671516895 118.6671197414 0.3912977054 0.3364500311 1
-82.1115996838 118.6671197414 0.3885403221 0.302863138 1
-78.556047678 118.6671197414 0.3905003374 0.3928297043 1
-75.0004956722 118.6671197414 0.3024536921 0.3658662142 1
-71.4449436665 118.6671197414 0 -0 0
-67.8893916607 118.6671197414 0 -0 0
-64.3338396549 118.6671197414 0 -0 0
-60.7782876492 118.6671197414 0.9940444681 0.2256142526 1
-57.2227356434 118.6671197414 0.4685482912 0.4323993182 1
-53.6671836376 118.6671197414 0.3437503846 0.3968262097 1
-50.1116316319 118.6671197414 0.3064990401 0.3762406563 1
-46.5560796261 118.6671197414 0.2264569505 0.2928743581 1
-43.0005276203 118.6671197414 0.5508939056 0.3143835588 1
-39.4449756145 118.6671197414 0.5383776586 0.2842199021 1
-35.8894236088 118.6671197414 0.4435742831 0.4708895164 1
-32.333871603 118.6671197414 0.5036279167 0.4796031071 1
-28.7783195972 118.6671197414 0.6347794394 0.4301624011 1
-25.2227675915 118.6671197414 0.4401983456 0.4839486036 1
-21.6672155857 118.6671197414 0.3410916711 0.3883236066 1
-18.1116635799 118.6671197414 0.4930975943 0.4702946787 1
-14.5561115742 118.6671197414 0.5814726242 0.5082448109 1
-11.0005595684 118.6671197414 0.3436049307 0.3763495734 1
-7.4450075626 118.6671197414 0.555667866 0.3576622829 1
-3.8894555569 118.6671197414 0.4279102696 0.4342901529 1
-0.3339035511 118.6671197414 0.3859735213 0.5511828894 1
3.2216484547 118.6671197414 0.3555891441 0.4482344935 1
6.7772004604 118.6671197414 0.5074523205 0.3913912738 1
10.3327524662 118.6671197414 0.5071542081 0.3326384029 1
13.888304472 118.6671197414 0 -0 0
17.4438564777 118.6671197414 0 -0 0
20.9994084835 118.6671197414 0 -0 0
24.5549604893 118.6671197414 0 -0 0
28.110512495 118.6671197414 0 -0 0
31.6660645008 118.6671197414 0 -0 0
35.2216165066 118.6671197414 0 -0 0
38.7771685123 118.6671197414 0.389067769 0.4738712671 1
42.3327205181 118.6671197414 0.4356305848 0.3442248944 1
45.8882725239 118.6671197414 0.4593124443 0.4171134717 1
49.4438245296 118.6671197414 0.5391229397 0.4456345344 1
52.9993765354 118.6671197414 0 -0 0
-124.778223753 115.1115677357 0.2982914171 0.3485224208 1
-121.2226717472 115.1115677357 0.2845704146 0.2492366865 1
-117.6671197414 115.1115677357 0.2832481728 0.2469769702 1
-114.1115677357 115.1115677357 0.3082273717 0.2353246764 1
-110.5560157299 115.1115677357 0.2345909851 0.2993550815 1
-107.0004637241 115.1115677357 0.2584553725 0.2889490024 1
-103.4449117184 115.1115677357 0.2519022242 0.2745472681 1
-99.8893597126 115.1115677357 0.2718320824 0.286937191 1
-96.3338077068 115.1115677357 0.299307089 0.242954399 1
-92.7782557011 115.1115677357 0.3432005189 0.2822447842 1
-89.2227036953 115.1115677357 0.3440944535 0.207557039 1
-85.6671516895 115.1115677357 0.2886264351 0.3479161724 1
-82.1115996838 115.1115677357 0.4561102193 0.3665927681 1
-78.556047678 115.1115677357 0.3640550984 0.3293242626 1
-75.0004956722 115.1115677357 0.3498673947 0.4011846831 1
-71.4449436665 115.1115677357 0 -0 0
-67.8893916607 115.1115677357 0 -0 0
-64.3338396549 115.1115677357 0 -0 0
-60.7782876492 115.1115677357 0.5294825244 0.2722328471 1
-57.2227356434 115.1115677357 0.4050485101 0.4419034305 1
-53.6671836376 115.1115677357 0.4263348201 0.341452431 1
-50.1116316319 115.1115677357 0.4144978059 0.3602713483 1
-46.5560796261 115.1115677357 0.297022269 0.3820596211 1
-43.0005276203 115.1115677357 0.4604352211 0.3253182035 1
-39.4449756145 115.1115677357 0.4160754032 0.3661855372 1
-35.8894236088 115.1115677357 0.3866881051 0.4502699543 1
-32.333871603 115.1115677357 0.6820953672 0.3171772553 1
-28.7783195972 115.1115677357 0.5495969689 0.3940259129 1
-25.2227675915 115.1115677357 0.4412467061 0.4653525099 1
-21.6672155857 115.1115677357 0.4860793781 0.505311612 1
-18.1116635799 115.1115677357 0.4804852729 0.5125848929 1
-14.5561115742 115.1115677357 0.4969968171 0.4385572058 1
-11.0005595684 115.1115677357 0.3763951718 0.4852077281 1
-7.4450075626 115.1115677357 0.5526513459 0.5422601008 1
-3.8894555569 115.1115677357 0.5192166638 0.4799891945 1
-0.3339035511 115.1115677357 0.4939598023 0.4542406847 1
3.2216484547 115.1115677357 0.4703458706 0.2859057229 1
6.7772004604 115.1115677357 0.3567737405 0.3404558441 1
10.3327524662 115.1115677357 0.493048058 0.3018316699 1
13.888304472 115.1115677357 0 -0 0
17.4438564777 115.1115677357 0 -0 0
20.9994084835 115.1115677357 0 -0 0
24.5549604893 115.1115677357 0 -0 0
28.110512495 115.1115677357 0 -0 0
31.6660645008 115.1115677357 0 -0 0
35.2216165066 115.1115677357 0 -0 0
38.7771685123 115.1115677357 0.4691797329 0.34117761 1
42.3327205181 115.1115677357 0.4271184504 0.3155909992 1
45.8882725239 115.1115677357 0.5842214606 0.5214774317 1
49.4438245296 115.1115677357 0.4996323063 0.4123476107 1
52.9993765354 115.1115677357 0 -0 0
-124.778223753 111.5560157299 0.2971890678 0.3593676139 1
-121.2226717472 111.5560157299 0.3185742266 0.2035761955 1
-117.6671197414 111.5560157299 0.3590742448 0.2945009324 1
-114.1115677357 111.5560157299 0.2801498754 0.3034219981 1
-110.5560157299 111.5560157299 0.2912846564 0.3149867868 1
-107.0004637241 111.5560157299 0.2674568955 0.2891081717 1
-103.4449117184 111.5560157299 0.2579108989 0.2746563866 1
-99.8893597126 111.5560157299 0.2058811298 0.2517257149 1
-96.3338077068 111.5560157299 0.263826475 0.3230879986 1
-92.7782557011 111.5560157299 0.3511874215 0.3111253091 1
-89.2227036953 111.5560157299 0.4045726132 0.3738917792 1
-85.6671516895 111.5560157299 0.3568262525 0.3780249455 1
-82.1115996838 111.5560157299 0.4644205394 0.3692917774 1
-78.556047678 111.5560157299 0.3139758357 0.3449135914 1
-75.0004956722 111.5560157299 0.2816606414 0.3630719136 1
-71.4449436665 111.5560157299 0 -0 0
-67.8893916607 111.5560157299 0 -0 0
-64.3338396549 111.5560157299 0 -0 0
-60.7782876492 111.5560157299 0.3869716744 0.3719457924 1
-57.2227356434 111.5560157299 0.2928927272 0.2616331874 1
-53.6671836376 111.5560157299 0.3860973843 0.4030931038 1
-50.1116316319 111.5560157299 0.3176329485 0.3279804298 1
-46.5560796261 111.5560157299 0.3581345105 0.4859426723 1
-43.0005276203 111.5560157299 0.3147686394 0.4215837261 1
-39.4449756145 111.5560157299 0.3706120056 0.4099925584 1
-35.8894236088 111.5560157299 0.3776259259 0.4208813138 1
-32.333871603 111.5560157299 0.4047046203 0.528814971 1
-28.7783195972 111.5560157299 0.3837441219 0.2915299659 1
-25.2227675915 111.5560157299 0.5383092834 0.5446700592 1
-21.6672155857 111.5560157299 0.3526245767 0.2790321105 1
-18.1116635799 111.5560157299 0.4608598814 0.5688466994 1
-14.5561115742 111.5560157299 0.4440317438 0.3285717547 1
-11.0005595684 111.5560157299 0.4301151023 0.455870727 1
-7.4450075626 111.5560157299 0.4397346648 0.4327969506 1
-3.8894555569 111.5560157299 0.5070340592 0.3418480721 1
-0.3339035511 111.5560157299 0.4490500293 0.3971581517 1
3.2216484547 111.5560157299 0.5437429215 0.3662327018 1
6.7772004604 111.5560157299 0.379104585 0.3385233489 1
10.3327524662 111.5560157299 0.3150884994 0.3750120277 1
13.888304472 111.5560157299 0 -0 0
17.4438564777 111.5560157299 0 -0 0
20.9994084835 111.5560157299 0 -0 0
24.5549604893 111.5560157299 0 -0 0
28.110512495 111.5560157299 0 -0 0
31.6660645008 111.5560157299 0 -0 0
35.2216165066 111.5560157299 0 -0 0
38.7771685123 111.5560157299 0.5498212468 0.392300736 1
42.3327205181 111.5560157299 0.5384233017 0.2855452539 1
45.8882725239 111.5560157299 0.4427932929 0.2530066989 1
49.4438245296 111.5560157299 0.4808832633 0.4742874252 1
52.9993765354 111.5560157299 0 -0 0
-124.778223753 108.0004637241 0.4087662343 0.3337480461 1
-121.2226717472 108.0004637241 0.2736508501 0.2648471812 1
-117.6671197414 108.0004637241 0.2971421941 0.246766855 1
-114.1115677357 108.0004637241 0.1959873727 0.3299103073 1
-110.5560157299 108.0004637241 0.3332426824 0.2952339077 1
-107.0004637241 108.0004637241 0.1814512037 0.3125440056 1
-103.4449117184 108.0004637241 0.2831493912 0.3202493526 1
-99.8893597126 108.0004637241 0.343506686 0.2956606264 1
-96.3338077068 108.0004637241 0.2970154672 0.3299218747 1
-92.7782557011 108.0004637241 0.2215505802 0.1661609047 1
-89.2227036953 108.0004637241 0.3748476005 0.3492078736 1
-85.6671516895 108.0004637241 0.2904629007 0.3973944222 1
-82.1115996838 108.0004637241 0.6187741315 0.3997266082 1
-78.556047678 108.0004637241 0.4320682264 0.2278927185 1
-75.0004956722 108.0004637241 0.2953967463 0.2800951931 1
-71.4449436665 108.0004637241 0 -0 0
-67.8893916607 108.0004637241 0 -0 0
-64.3338396549 108.0004637241 0 -0 0
-60.7782876492 108.0004637241 0.4362522267 0.3891191399 1
-57.2227356434 108.0004637241 0.4168487414 0.2420994177 1
-53.6671836376 108.0004637241 0.3614067441 0.3408829208 1
-50.1116316319 108.0004637241 0.2987244676 0.3672893631 1
-46.5560796261 108.0004637241 0.397472105 0.4008061135 1
-43.0005276203 108.0004637241 0.339163069 0.3421503908 1
-39.4449756145 108.0004637241 0.351378004 0.4143862039 1
-35.8894236088 108.0004637241 0.4893553034 0.2979840418 1
-32.333871603 108.0004637241 0.4911985707 0.4920307527 1
-28.7783195972 108.0004637241 0.5179139993 0.3996764902 1
-25.2227675915 108.0004637241 0.5662718439 0.5210218056 1
-21.6672155857 108.0004637241 0.4551207921 0.2824642517 1
-18.1116635799 108.0004637241 0.3701658214 0.4486789773 1
-14.5561115742 108.0004637241 0.5113097933 0.4109286457 1
-11.0005595684 108.0004637241 0.5073709683 0.4707412209 1
-7.4450075626 108.0004637241 0.5243308446 0.437631321 1
-3.8894555569 108.0004637241 0.4382258007 0.3491858575 1
-0.3339035511 108.0004637241 0.3705368957 0.3570180432 1
3.2216484547 108.0004637241 0.4780276577 0.3627886352 1
6.7772004604 108.0004637241 0.3915876736 0.3436753419 1
10.3327524662 108.0004637241 0.4293209114 0.3457033074 1
13.888304472 108.0004637241 0.4227369764 0.4261675962 1
17.4438564777 108.0004637241 0 -0 0
20.9994084835 108.0004637241 0 -0 0
24.5549604893 108.0004637241 0 -0 0
28.110512495 108.0004637241 0 -0 0
31.6660645008 108.0004637241 0 -0 0
35.2216165066 108.0004637241 0.4455054806 0.440198972 1
38.7771685123 108.0004637241 0.4506977023 0.4230408613 1
42.3327205181 108.0004637241 0.4504458595 0.5084852877 1
45.8882725239 108.0004637241 0.4127963903 0.4493683679 1
49.4438245296 108.0004637241 0.5227953553 0.3663015469 1
52.9993765354 108.0004637241 0 -0 0
-124.778223753 104.4449117184 0.3938411029 0.2726835956 1
-121.2226717472 104.4449117184 0.29879602 0.2439215863 1
-117.6671197414 104.4449117184 0.3349271832 0.261476166 1
-114.1115677357 104.4449117184 0.326899336 0.3296395136 1
-110.5560157299 104.4449117184 0.2862440416 0.2777015678 1
-107.0004637241 104.4449117184 0.3432462516 0.2620083338 1
-103.4449117184 104.4449117184 0.30651949 0.250094017 1
-99.8893597126 104.4449117184 0.4279181005 0.2044223613 1
-96.3338077068 104.4449117184 0.3039450597 0.2204147146 1
-92.7782557011 104.4449117184 0.2437945462 0.2654299816 1
-89.2227036953 104.4449117184 0.2301944086 0.2388772574 1
-85.6671516895 104.4449117184 0.3179278614 0.4081246348 1
-82.1115996838 104.4449117184 0.3560124396 0.3452483973 1
-78.556047678 104.4449117184 0.3208686675 0.2983672205 1
-75.0004956722 104.4449117184 0.4138762983 0.3013016276 1
-71.4449436665 104.4449117184 0 -0 0
-67.8893916607 104.4449117184 0 -0 0
-64.3338396549 104.4449117184 0 -0 0
-60.7782876492 104.4449117184 0.4829069106 0.3411067512 1
-57.2227356434 104.4449117184 0.3197360909 0.3860827516 1
-53.6671836376 104.4449117184 0.4023923472 0.4425843637 1
-50.1116316319 104.4449117184 0.2674699619 0.3677686834 1
-46.5560796261 104.4449117184 0.3003202104 0.3003618933 1
-43.0005276203 104.4449117184 0.3148224043 0.3387443154 1
-39.4449756145 104.4449117184 0.3883040517 0.4194384085 1
-35.8894236088 104.4449117184 0.4737890199 0.4201424765 1
-32.333871603 104.4449117184 0.5826066775 0.536861411 1
-28.7783195972 104.4449117184 0.4741200222 0.4197812244 1
-25.2227675915 104.4449117184 0.5843639836 0.4481782003 1
-21.6672155857 104.4449117184 0.4568479379 0.3725155263 1
-18.1116635799 104.4449117184 0.4866394464 0.37012208 1
-14.5561115742 104.4449117184 0.4337163469 0.4791949142 1
-11.0005595684 104.4449117184 0.4185259482 0.4532208736 1
-7.4450075626 104.4449117184 0.3544928359 0.4838504261 1
-3.8894555569 104.4449117184 0.4962901984 0.3557221805 1
-0.3339035511 104.4449117184 0.5011005838 0.3839556465 1
3.2216484547 104.4449117184 0.3880253599 0.348285949 1
6.7772004604 104.4449117184 0.4210912275 0.4555493455 1
10.3327524662 104.4449117184 0.3427968008 0.3565349194 1
13.888304472 104.4449117184 0.3069686499 0.5308680625 1
17.4438564777 104.4449117184 0 -0 0
20.9994084835 104.4449117184 0 -0 0
24.5549604893 104.4449117184 0 -0 0
28.110512495 104.4449117184 0 -0 0
31.6660645008 104.4449117184 0 -0 0
35.2216165066 104.4449117184 0.4152384779 0.4512298477 1
38.7771685123 104.4449117184 0.5365583763 0.2335102269 1
42.3327205181 104.4449117184 0.5505899759 0.548187759 1
45.8882725239 104.4449117184 0.5847288603 0.2919547605 1
49.4438245296 104.4449117184 0.4055400242 0.5625956013 1
52.9993765354 104.4449117184 0 -0 0
-124.778223753 100.8893597126 0.4785686633 0.2460296734 1
-121.2226717472 100.8893597126 0.3635167777 0.1893464285 1
-117.6671197414 100.8893597126 0.3204223715 0.2709364026 1
-114.1115677357 100.8893597126 0.3215112739 0.2756554346 1
-110.5560157299 100.8893597126 0.2142406282 0.1891310555 1
-107.0004637241 100.8893597126 0.285061705 0.2426055869 1
-103.4449117184 100.8893597126 0.3001958775 0.1759136603 1
-99.8893597126 100.8893597126 0.3696280377 0.2674478116 1
-96.3338077068 100.8893597126 0.3688560867 0.3033636241 1
-92.7782557011 100.8893597126 0.3019954035 0.3279817499 1
-89.2227036953 100.8893597126 0.3628744622 0.3050002667 1
-85.6671516895 100.8893597126 0.3864330404 0.3450825829 1
-82.1115996838 100.8893597126 0.3988321814 0.3210542383 1
-78.556047678 100.8893597126 0.3731546199 0.2787296127 1
-75.0004956722 100.8893597126 0.4038753022 0.3761205074 1
-71.4449436665 100.8893597126 0 -0 0
-67.8893916607 100.8893597126 0 -0 0
-64.3338396549 100.8893597126 0 -0 0
-60.7782876492 100.8893597126 0.3881717313 0.4328983948 1
-57.2227356434 100.8893597126 0.4998823144 0.3207962426 1
-53.6671836376 100.8893597126 0.3524839331 0.403157407 1
-50.1116316319 100.8893597126 0.4446167816 0.1949405784 1
-46.5560796261 100.8893597126 0.3772675377 0.3133997252 1
-43.0005276203 100.8893597126 0.4452408846 0.3854739078 1
-39.4449756145 100.8893597126 0.424281997 0.3376813222 1
-35.8894236088 100.8893597126 0.3706190758 0.2915000518 1
-32.333871603 100.8893597126 0.3829383413 0.5360085553 1
-28.7783195972 100.8893597126 0.5887882816 0.4379679169 1
-25.2227675915 100.8893597126 0.4726110686 0.5354518879 1
-21.6672155857 100.8893597126 0.5112802147 0.3273581615 1
-18.1116635799 100.8893597126 0.3381844485 0.5154967022 1
-14.5561115742 100.8893597126 0.3685990978 0.4870645094 1
-11.0005595684 100.8893597126 0.4707922785 0.4384015716 1
-7.4450075626 100.8893597126 0.5220470314 0.3695662628 1
-3.8894555569 100.8893597126 0.4444607894 0.4086449667 1
-0.3339035511 100.8893597126 0.5292559196 0.3596941638 1
3.2216484547 100.8893597126 0.4040799356 0.3816099466 1
6.7772004604 100.8893597126 0.5388561957 0.3190700141 1
10.3327524662 100.8893597126 0.4584651374 0.4853259081 1
13.888304472 100.8893597126 0.3735211523 0.3812949193 1
17.4438564777 100.8893597126 0 -0 0
20.9994084835 100.8893597126 0 -0 0
24.5549604893 100.8893597126 0 -0 0
28.110512495 100.8893597126 0 -0 0
31.6660645008 100.8893597126 0 -0 0
35.2216165066 100.8893597126 0.4043776901 0.2355587094 1
38.7771685123 100.8893597126 0.4814393938 0.4211048757 1
42.3327205181 100.8893597126 0.53962045 0.4601981452 1
45.8882725239 100.8893597126 0.3483695163 0.3730623492 1
49.4438245296 100.8893597126 0.4041457155 0.4365755771 1
52.9993765354 100.8893597126 0 -0 0
-124.778223753 97.3338077068 0.4026477699 0.2742703887 1
-121.2226717472 97.3338077068 0.2851092723 0.3397916691 1
-117.6671197414 97.3338077068 0.3064997337 0.2911349737 1
-114.1115677357 97.3338077068 0.3460511574 0.2287947972 1
-110.5560157299 97.3338077068 0.134450538 0.2809921258 1
-107.0004637241 97.3338077068 0.3258695907 0.3092543202 1
-103.4449117184 97.3338077068 0.3227284693 0.1769556107 1
-99.8893597126 97.3338077068 0.3408982694 0.2474411207 1
-96.3338077068 97.3338077068 0.3471109735 0.257057014 1
-92.7782557011 97.3338077068 0.2567563285 0.3014056448 1
-89.2227036953 97.3338077068 0.2816812703 0.2585966425 1
-85.6671516895 97.3338077068 0.3094560674 0.3440421652 1
-82.1115996838 97.3338077068 0.3136267999 0.3388164943 1
-78.556047678 97.3338077068 0.357199609 0.3015521056 1
-75.0004956722 97.3338077068 0.2361571046 0.3876529655 1
-71.4449436665 97.3338077068 0 -0 0
-67.8893916607 97.3338077068 0 -0 0
-64.3338396549 97.3338077068 0 -0 0
-60.7782876492 97.3338077068 0.3324790098 0.4220982855 1
-57.2227356434 97.3338077068 0.6145089132 0.2875095651 1
-53.6671836376 97.3338077068 0.3492479903 0.2439957117 1
-50.1116316319 97.3338077068 0.3777030271 0.3974114712 1
-46.5560796261 97.3338077068 0.4104368184 0.3781453629 1
-43.0005276203 97.3338077068 0.3038182657 0.3768429669 1
-39.4449756145 97.3338077068 0.4772513214 0.4103309889 1
-35.8894236088 97.3338077068 0.5464072286 0.4291834002 1
-32.333871603 97.3338077068 0.5046208342 0.4241954093 1
-28.7783195972 97.3338077068 0.5506534736 0.4219414431 1
-25.2227675915 97.3338077068 0.5361159957 0.4308236451 1
-21.6672155857 97.3338077068 0.4455363568 0.3531982484 1
-18.1116635799 97.3338077068 0.4903409717 0.366471411 1
-14.5561115742 97.3338077068 0.5382362096 0.4067735528 1
-11.0005595684 97.3338077068 0.3689932399 0.4070292439 1
-7.4450075626 97.3338077068 0.49870848 0.4137649201 1
-3.8894555569 97.3338077068 0.4138633213 0.441619727 1
-0.3339035511 97.3338077068 0.3920954313 0.4946649443 1
3.2216484547 97.3338077068 0.3818798229 0.4942495916 1
6.7772004604 97.3338077068 0.4796496453 0.3434836631 1
10.3327524662 97.3338077068 0.3832466115 0.254887152 1
13.888304472 97.3338077068 0.4127772828 0.31128242 1
17.4438564777 97.3338077068 0 -0 0
20.9994084835 97.3338077068 0 -0 0
24.5549604893 97.3338077068 0 -0 0
28.110512495 97.3338077068 0 -0 0
31.6660645008 97.3338077068 0 -0 0
35.2216165066 97.3338077068 0.3798497319 0.4210268349 1
38.7771685123 97.3338077068 0.6661051842 0.3725650402 1
42.3327205181 97.3338077068 0.4253530897 0.3097970039 1
45.8882725239 97.3338077068 0.3841873527 0.3976171787 1
49.4438245296 97.3338077068 0.4707553613 0.3801790785 1
52.9993765354 97.3338077068 0 -0 0
-124.778223753 93.7782557011 0.273307721 0.2291700778 1
-121.2226717472 93.7782557011 0.3199020619 0.2493263395 1
-117.6671197414 93.7782557011 0.3165016919 0.2977695637 1
-114.1115677357 93.7782557011 0.2920599859 0.2847535689 1
-110.5560157299 93.7782557011 0.2862077955 0.2819365363 1
-107.0004637241 93.7782557011 0.3414018655 0.2814409949 1
-103.4449117184 93.7782557011 0.2112013985 0.2889810421 1
-99.8893597126 93.7782557011 0.4332585282 0.3541275788 1
-96.3338077068 93.7782557011 0.2724220201 0.3080335226 1
-92.7782557011 93.7782557011 0.3008824266 0.3257504486 1
-89.2227036953 93.7782557011 0.3067358475 0.2726493856 1
-85.6671516895 93.7782557011 0.4357118028 0.324853874 1
-82.1115996838 93.7782557011 0.26040834 0.2973401377 1
-78.556047678 93.7782557011 0.2578619444 0.3056616673 1
-75.0004956722 93.7782557011 0.3617013214 0.3868483484 1
-71.4449436665 93.7782557011 0 -0 0
-67.8893916607 93.7782557011 0 -0 0
-64.3338396549 93.7782557011 0.6899535964 0.6547907393 1
-60.7782876492 93.7782557011 0.4809451053 0.3729912219 1
-57.2227356434 93.7782557011 0.4819492099 0.4180975738 1
-53.6671836376 93.7782557011 0.5354704584 0.3858023147 1
-50.1116316319 93.7782557011 0.4729381331 0.3940035388 1
-46.5560796261 93.7782557011 0.5098603548 0.2915887874 1
-43.0005276203 93.7782557011 0.3370990588 0.3865529656 1
-39.4449756145 93.7782557011 0.3949863432 0.413451817 1
-35.8894236088 93.7782557011 0.4267309758 0.3894685337 1
-32.333871603 93.7782557011 0.7453801333 0.3745413215 1
-28.7783195972 93.7782557011 0.563943193 0.3881027743 1
-25.2227675915 93.7782557011 0.5121524912 0.4806558082 1
-21.6672155857 93.7782557011 0.4470345261 0.2554054255 1
-18.1116635799 93.7782557011 0.4929277749 0.4826953411 1
-14.5561115742 93.7782557011 0.3656895483 0.352627105 1
-11.0005595684 93.7782557011 0.2976743843 0.4493403555 1
-7.4450075626 93.7782557011 0.356869166 0.5565145912 1
-3.8894555569 93.7782557011 0.5069960233 0.3816095886 1
-0.3339035511 93.7782557011 0.3907672156 0.3507261572 1
3.2216484547 93.7782557011 0.5073724003 0.3930388126 1
6.7772004604 93.7782557011 0.3843561428 0.3744886082 1
10.3327524662 93.7782557011 0.5214772527 0.3826872592 1
13.888304472 93.7782557011 0.4439902175 0.3756011152 1
17.4438564777 93.7782557011 0 -0 0
20.9994084835 93.7782557011 0 -0 0
24.5549604893 93.7782557011 0 -0 0
28.110512495 93.7782557011 0 -0 0
31.6660645008 93.7782557011 0 -0 0
35.2216165066 93.7782557011 0.3938832557 0.3420752586 1
38.7771685123 93.7782557011 0.4574429993 0.3003637056 1
42.3327205181 93.7782557011 0.3543346287 0.5263681401 1
45.8882725239 93.7782557011 0.4969707736 0.4973564582 1
49.4438245296 93.7782557011 0.51940926 0.3657331107 1
52.9993765354 93.7782557011 0 -0 0
-124.778223753 90.2227036953 0.3300248626 0.30440214 1
-121.2226717472 90.2227036953 0.3220418307 0.259812406 1
-117.6671197414 90.2227036953 0.2758497984 0.2228531105 1
-114.1115677357 90.2227036953 0.2217817046 0.2360201527 1
-110.5560157299 90.2227036953 0.224352309 0.2357335182 1
-107.0004637241 90.2227036953 0.3241812416 0.279502839 1
-103.4449117184 90.2227036953 0.281765464 0.2547118062 1
-99.8893597126 90.2227036953 0.3031752566 0.2253847616 1
-96.3338077068 90.2227036953 0.2763803105 0.3210636577 1
-92.7782557011 90.2227036953 0.3335987214 0.3074946425 1
-89.2227036953 90.2227036953 0.3253500866 0.381377256 1
-85.6671516895 90.2227036953 0.232943961 0.2535220414 1
-82.1115996838 90.2227036953 0.4116605023 0.4043285565 1
-78.556047678 90.2227036953 0.2668772051 0.377488191 1
-75.0004956722 90.2227036953 0.3682484734 0.3058141691 1
-71.4449436665 90.2227036953 0 -0 0
-67.8893916607 90.2227036953 0 -0 0
-64.3338396549 90.2227036953 0.5892597038 0.3174023611 1
-60.7782876492 90.2227036953 0.4253734053 0.2086325393 1
-57.2227356434 90.2227036953 0.4284816592 0.2691891873 1
-53.6671836376 90.2227036953 0.5002641955 0.4857006294 1
-50.1116316319 90.2227036953 0.3240194993 0.314245891 1
-46.5560796261 90.2227036953 0.3794301729 0.2671650702 1
-43.0005276203 90.2227036953 0.5276525473 0.3804106056 1
-39.4449756145 90.2227036953 0.2984754664 0.3242553446 1
-35.8894236088 90.2227036953 0.4329838191 0.4588265237 1
-32.333871603 90.2227036953 0.6390273401 0.525487988 1
-28.7783195972 90.2227036953 0.6781377928 0.4838506498 1
-25.2227675915 90.2227036953 0.5566078016 0.42882537 1
-21.6672155857 90.2227036953 0.4111853213 0.4036942062 1
-18.1116635799 90.2227036953 0.4514058871 0.4060530622 1
-14.5561115742 90.2227036953 0.4406415764 0.2629446225 1
-11.0005595684 90.2227036953 0.5067945669 0.5111197925 1
-7.4450075626 90.2227036953 0.5288875078 0.3913895734 1
-3.8894555569 90.2227036953 0.5020200696 0.3294548602 1
-0.3339035511 90.2227036953 0.5310620012 0.4374632916 1
3.2216484547 90.2227036953 0.4486787088 0.4085846461 1
6.7772004604 90.2227036953 0.5055615306 0.3384882887 1
10.3327524662 90.2227036953 0.4817822096 0.3883153729 1
13.888304472 90.2227036953 0.4881785155 0.3033490586 1
17.4438564777 90.2227036953 0 -0 0
20.9994084835 90.2227036953 0 -0 0
24.5549604893 90.2227036953 0 -0 0
28.110512495 90.2227036953 0 -0 0
31.6660645008 90.2227036953 0 -0 0
35.2216165066 90.2227036953 0.5549055358 0.4604520016 1
38.7771685123 90.2227036953 0.5430708485 0.2285306262 1
42.3327205181 90.2227036953 0.4723817342 0.3595551536 1
45.8882725239 90.2227036953 0.4024567846 0.5225854863 1
49.4438245296 90.2227036953 0.4035413464 0.4748705836 1
52.9993765354 90.2227036953 0 -0 0
-124.778223753 86.6671516895 0.1556715269 0.2346246581 1
-121.2226717472 86.6671516895 0.3375579739 0.258746795 1