TITLE = "B00020"
VARIABLES = "x", "y", "Vx", "Vy", "isValid"
ZONE T="Frame 0", I=51, J=39, F=POINT
-124.778223753 125.778223753 -9.1968370659 -0.3413620705 1
-121.2226717472 125.778223753 -10.4069072374 1.5901266543 1
-117.6671197414 125.778223753 -9.8683820361 0.7066895985 1
-114.1115677357 125.778223753 -8.2270219312 0.5820586227 1
-110.5560157299 125.778223753 -9.9420091494 0.8013151857 1
-107.0004637241 125.778223753 -10.474935935 -1.7227402291 1
-103.4449117184 125.778223753 -9.6354031736 -0.0532820822 1
-99.8893597126 125.778223753 -9.8502622429 2.3400141226 1
-96.3338077068 125.778223753 -9.0455385581 2.0786723088 1
-92.7782557011 125.778223753 -9.0697159431 0.0546772709 1
-89.2227036953 125.778223753 -10.2627612795 2.3244727794 1
-85.6671516895 125.778223753 -9.3040723337 2.4286174392 1
-82.1115996838 125.778223753 -10.2602358113 1.5189720275 1
-78.556047678 125.778223753 -8.9054015603 2.1353099083 1
-75.0004956722 125.778223753 -9.9741161515 -2.3233954818 1
-71.4449436665 125.778223753 -10.8146202468 -0.783813514 1
-67.8893916607 125.778223753 0 -0 0
-64.3338396549 125.778223753 0 -0 0
-60.7782876492 125.778223753 0 -0 0
-57.2227356434 125.778223753 -10.9130781879 1.3138439583 1
-53.6671836376 125.778223753 -10.4964642274 4.9354007703 1
-50.1116316319 125.778223753 -10.814655568 -1.0182758683 1
-46.5560796261 125.778223753 -9.8870493085 -1.5762100879 1
-43.0005276203 125.778223753 -10.6098277294 3.4092055504 1
-39.4449756145 125.778223753 -10.8907375071 3.1979315865 1
-35.8894236088 125.778223753 -9.863083851 4.0746222865 1
-32.333871603 125.778223753 -10.8757789643 3.7095596677 1
-28.7783195972 125.778223753 -9.2442911444 4.5811287887 1
-25.2227675915 125.778223753 -9.3303160109 1.4168053568 1
-21.6672155857 125.778223753 -9.0902199197 5.3832740233 1
-18.1116635799 125.778223753 -8.2012374301 3.4673443023 1
-14.5561115742 125.778223753 -8.9305326187 0.4394667992 1
-11.0005595684 125.778223753 -10.8759025886 3.8449989412 1
-7.4450075626 125.778223753 -11.4399473817 3.057688625 1
-3.8894555569 125.778223753 -8.545902036 -0.5515234155 1
-0.3339035511 125.778223753 -7.0120067869 -3.0833141806 1
3.2216484547 125.778223753 -9.7517866412 -2.4640269768 1
6.7772004604 125.778223753 -9.7393888879 0.0160888223 1
10.3327524662 125.778223753 -9.1339122867 2.070495443 1
13.888304472 125.778223753 0 -0 0
17.4438564777 125.778223753 0 -0 0
20.9994084835 125.778223753 0 -0 0
24.5549604893 125.778223753 0 -0 0
28.110512495 125.778223753 0 -0 0
31.6660645008 125.778223753 0 -0 0
35.2216165066 125.778223753 0 -0 0
38.7771685123 125.778223753 -8.2214764974 -0.284265295 1
42.3327205181 125.778223753 -6.7267878186 -0.0510391838 1
45.8882725239 125.778223753 -6.4753006293 4.7366835053 1
49.4438245296 125.778223753 -9.3769930223 -0.4213646665 1
52.9993765354 125.778223753 0 -0 0
-124.778223753 122.2226717472 -8.6611375634 -0.7431940943 1
-121.2226717472 122.2226717472 -9.2965312502 1.282160811 1
-117.6671197414 122.2226717472 -10.0630726805 0.2868260845 1
-114.1115677357 122.2226717472 -10.8782867719 0.3486382448 1
-110.5560157299 122.2226717472 -9.9024140455 -0.7647753686 1
-107.0004637241 122.2226717472 -8.6026809204 -0.1580095424 1
-103.4449117184 122.2226717472 -9.1283315317 0.0740686287 1
-99.8893597126 122.2226717472 -11.1039188177 1.5069451471 1
-96.3338077068 122.2226717472 -9.8366282464 -1.4586256984 1
-92.7782557011 122.2226717472 -9.9576564562 4.2184503532 1
-89.2227036953 122.2226717472 -10.9190651371 1.2452677816 1
-85.6671516895 122.2226717472 -10.5237675416 0.7564395573 1
-82.1115996838 122.2226717472 -9.2735547872 -2.9348413716 1
-78.556047678 122.2226717472 -10.2313077202 -1.0420117379 1
-75.0004956722 122.2226717472 -10.9973723139 1.5278199967 1
-71.4449436665 122.2226717472 -11.8023962292 0.061918124 1
-67.8893916607 122.2226717472 0 -0 0
-64.3338396549 122.2226717472 0 -0 0
-60.7782876492 122.2226717472 0 -0 0
-57.2227356434 122.2226717472 -10.0745697423 -2.5937265497 1
-53.6671836376 122.2226717472 -10.7356949484 1.1191356534 1
-50.1116316319 122.2226717472 -8.9789580311 -1.3628521712 1
-46.5560796261 122.2226717472 -12.1439172452 0.199229423 1
-43.0005276203 122.2226717472 -8.4202114231 -0.9995379535 1
-39.4449756145 122.2226717472 -12.6009386979 3.3779109367 1
-35.8894236088 122.2226717472 -10.3011554614 -2.0635018386 1
-32.333871603 122.2226717472 -9.4255243984 0.0300936918 1
-28.7783195972 122.2226717472 -8.0742222709 2.2681707317 1
-25.2227675915 122.2226717472 -10.557799551 2.4790561621 1
-21.6672155857 122.2226717472 -11.3322882591 1.0789047673 1
-18.1116635799 122.2226717472 -10.2202168526 -2.3010194797 1
-14.5561115742 122.2226717472 -9.924030641 -3.4882544731 1
-11.0005595684 122.2226717472 -12.8158684096 -5.7213335584 1
-7.4450075626 122.2226717472 -10.5851558471 1.1847978282 1
-3.8894555569 122.2226717472 -6.6665827745 1.6862357333 1
-0.3339035511 122.2226717472 -12.2051819264 0.8343405399 1
3.2216484547 122.2226717472 -8.4994016308 3.4441912332 1
6.7772004604 122.2226717472 -11.3069276127 -0.167299027 1
10.3327524662 122.2226717472 -8.721642838 -3.4489772604 1
13.888304472 122.2226717472 0 -0 0
17.4438564777 122.2226717472 0 -0 0
20.9994084835 122.2226717472 0 -0 0
24.5549604893 122.2226717472 0 -0 0
28.110512495 122.2226717472 0 -0 0
31.6660645008 122.2226717472 0 -0 0
35.2216165066 122.2226717472 0 -0 0
38.7771685123 122.2226717472 -8.3740289091 1.1521963288 1
42.3327205181 122.2226717472 -9.4257186652 0.983643398 1
45.8882725239 122.2226717472 -9.0808951138 0.6311551386 1
49.4438245296 122.2226717472 -9.1191480107 -2.0037559705 1
52.9993765354 122.2226717472 0 -0 0
-124.778223753 118.6671197414 -10.1766304493 -0.4577631986 1
-121.2226717472 118.6671197414 -9.9608883492 1.0242804782 1
-117.6671197414 118.6671197414 -10.8902076885 1.1149324265 1
-114.1115677357 118.6671197414 -10.6020393972 -1.2370555946 1
-110.5560157299 118.6671197414 -9.2824027564 -0.1483138635 1
-107.0004637241 118.6671197414 -9.8387298598 1.0974837366 1
-103.4449117184 118.6671197414 -9.1543809421 -0.2232478624 1
-99.8893597126 118.6671197414 -7.6828629931 -2.2668108642 1
-96.3338077068 118.6671197414 -9.5448395284 -0.9044355297 1
-92.7782557011 118.6671197414 -10.5453311552 1.3087753612 1
-89.2227036953 118.6671197414 -10.9878002594 1.1486995266 1
-85.6671516895 118.6671197414 -9.2617398342 0.8166446014 1
-82.1115996838 118.6671197414 -11.3710356533 1.0704453317 1
-78.556047678 118.6671197414 -11.0624340278 3.5531749021 1
-75.0004956722 118.6671197414 -11.6182489733 0.0330606755 1
-71.4449436665 118.6671197414 -11.0053549129 -0.0969921098 1
-67.8893916607 118.6671197414 0 -0 0
-64.3338396549 118.6671197414 0 -0 0
-60.7782876492 118.6671197414 -12.3142538984 1.856731332 1
-57.2227356434 118.6671197414 -8.6517597757 1.1068085425 1
-53.6671836376 118.6671197414 -11.7151351194 1.7405951131 1
-50.1116316319 118.6671197414 -10.8308326934 -3.2143029786 1
-46.5560796261 118.6671197414 -10.1700606997 0.1415498471 1
-43.0005276203 118.6671197414 -7.9308357196 3.7406600146 1
-39.4449756145 118.6671197414 -11.0893134872 1.3231157824 1
-35.8894236088 118.6671197414 -8.1940495589 -0.6478797431 1
-32.333871603 118.6671197414 -5.921781564 -3.2013400856 1
-28.7783195972 118.6671197414 -9.5618820241 5.9981107517 1
-25.2227675915 118.6671197414 -10.7245687595 1.7360210133 1
-21.6672155857 118.6671197414 -12.0522409812 0.7622322397 1
-18.1116635799 118.6671197414 -11.3374274987 1.6482654062 1
-14.5561115742 118.6671197414 -12.3656992764 -1.1764266957 1
-11.0005595684 118.6671197414 -9.251690943 3.2561586415 1
-7.4450075626 118.6671197414 -6.9152795863 1.7790775981 1
-3.8894555569 118.6671197414 -9.4835748473 0.6381840643 1
-0.3339035511 118.6671197414 -9.2255532295 -3.669911582 1
3.2216484547 118.6671197414 -9.0861049959 3.2419065234 1
6.7772004604 118.6671197414 -9.8449110758 2.1290227285 1
10.3327524662 118.6671197414 -12.4986837242 1.601906286 1
13.888304472 118.6671197414 0 -0 0
17.4438564777 118.6671197414 0 -0 0
20.9994084835 118.6671197414 0 -0 0
24.5549604893 118.6671197414 0 -0 0
28.110512495 118.6671197414 0 -0 0
31.6660645008 118.6671197414 0 -0 0
35.2216165066 118.6671197414 0 -0 0
38.7771685123 118.6671197414 -10.5274232894 2.543747003 1
42.3327205181 118.6671197414 -10.542805687 -0.0610350932 1
45.8882725239 118.6671197414 -13.2109364171 1.9401600878 1
49.4438245296 118.6671197414 -5.3145918829 5.1951178074 1
52.9993765354 118.6671197414 0 -0 0
-124.778223753 115.1115677357 -8.1999128838 1.4611511667 1
-121.2226717472 115.1115677357 -10.3196814489 0.1676169181 1
-117.6671197414 115.1115677357 -9.8349858089 -1.5358025957 1
-114.1115677357 115.1115677357 -10.9593313444 1.7448160006 1
-110.5560157299 115.1115677357 -9.8277802771 -2.2192861432 1
-107.0004637241 115.1115677357 -9.0791996945 -2.7767435261 1
-103.4449117184 115.1115677357 -10.6942454797 0.9556513196 1
-99.8893597126 115.1115677357 -9.6549181557 3.3582370091 1
-96.3338077068 115.1115677357 -10.9303679321 0.4452948029 1
-92.7782557011 115.1115677357 -10.6353826425 0.9764731874 1
-89.2227036953 115.1115677357 -10.8322102216 -0.1049747088 1
-85.6671516895 115.1115677357 -10.9639054443 2.5277288231 1
-82.1115996838 115.1115677357 -9.9319072763 2.673534879 1
-78.556047678 115.1115677357 -10.3465962295 3.083667393 1
-75.0004956722 115.1115677357 -11.6449518266 0.9528079603 1
-71.4449436665 115.1115677357 -9.1480584411 0.3092550683 1
-67.8893916607 115.1115677357 0 -0 0
-64.3338396549 115.1115677357 0 -0 0
-60.7782876492 115.1115677357 -7.3146921057 -1.2257881208 1
-57.2227356434 115.1115677357 -9.2958424861 3.1579302884 1
-53.6671836376 115.1115677357 -8.2226244375 5.6074402379 1
-50.1116316319 115.1115677357 -10.1185623398 3.1116418107 1
-46.5560796261 115.1115677357 -11.1976613739 1.702995659 1
-43.0005276203 115.1115677357 -11.7263319508 2.7215540973 1
-39.4449756145 115.1115677357 -9.1756443252 3.5762220076 1
-35.8894236088 115.1115677357 -11.6987813879 2.1073354906 1
-32.333871603 115.1115677357 -11.4317351947 1.2155979447 1
-28.7783195972 115.1115677357 -8.4311256846 -1.6536872157 1
-25.2227675915 115.1115677357 -8.1072299646 3.0123714812 1
-21.6672155857 115.1115677357 -10.6849030132 -1.4599679053 1
-18.1116635799 115.1115677357 -9.8830050272 -0.6864505312 1
-14.5561115742 115.1115677357 -8.7617677604 4.2360933098 1
-11.0005595684 115.1115677357 -10.4248857457 0.3080541464 1
-7.4450075626 115.1115677357 -11.399469247 2.2770010403 1
-3.8894555569 115.1115677357 -10.5477153386 1.9234001621 1
-0.3339035511 115.1115677357 -8.8848269413 -1.0529789812 1
3.2216484547 115.1115677357 -10.6113995243 -3.2470987448 1
6.7772004604 115.1115677357 -12.5721342312 -1.0317155981 1
10.3327524662 115.1115677357 -9.4662321212 4.4565154735 1
13.888304472 115.1115677357 0 -0 0
17.4438564777 115.1115677357 0 -0 0
20.9994084835 115.1115677357 0 -0 0
24.5549604893 115.1115677357 0 -0 0
28.110512495 115.1115677357 0 -0 0
31.6660645008 115.1115677357 0 -0 0
35.2216165066 115.1115677357 -6.4753006293 0.2862432841 1
38.7771685123 115.1115677357 -6.6125942676 4.0713903935 1
42.3327205181 115.1115677357 -8.96719606 1.8502852068 1
45.8882725239 115.1115677357 -8.4146306681 1.6502787166 1
49.4438245296 115.1115677357 -10.8010745534 6.9389624741 1
52.9993765354 115.1115677357 0 -0 0
-124.778223753 111.5560157299 -9.126053312 -0.2256850276 1
-121.2226717472 111.5560157299 -9.1398815753 -1.546398966 1
-117.6671197414 111.5560157299 -8.196257136 -0.5616606098 1
-114.1115677357 111.5560157299 -10.6196117113 -2.4519117934 1
-110.5560157299 111.5560157299 -9.63072311 1.1737246212 1
-107.0004637241 111.5560157299 -9.0816368597 -0.7808288697 1
-103.4449117184 111.5560157299 -11.3784001307 -3.0554457266 1
-99.8893597126 111.5560157299 -11.8587159375 -1.6134386691 1
-96.3338077068 111.5560157299 -10.0388776349 1.7389526757 1
-92.7782557011 111.5560157299 -11.328138014 -1.0400867306 1
-89.2227036953 111.5560157299 -11.4641071061 0.7883699532 1
-85.6671516895 111.5560157299 -10.0655804881 -1.3007397804 1
-82.1115996838 111.5560157299 -10.5533667361 -0.5162551629 1
-78.556047678 111.5560157299 -12.0624841392 3.0917912769 1
-75.0004956722 111.5560157299 -11.0505484324 0.4324202129 1
-71.4449436665 111.5560157299 -12.3512175703 2.7592418544 1
-67.8893916607 111.5560157299 0 -0 0
-64.3338396549 111.5560157299 0 -0 0
-60.7782876492 111.5560157299 -9.3105891015 2.2538656317 1
-57.2227356434 111.5560157299 -11.3334361992 1.8501439218 1
-53.6671836376 111.5560157299 -11.2958720664 2.3165608229 1
-50.1116316319 111.5560157299 -11.5880316572 -0.0305705284 1
-46.5560796261 111.5560157299 -10.6524074775 -0.3316840522 1
-43.0005276203 111.5560157299 -8.3004194564 1.3542161293 1
-39.4449756145 111.5560157299 -8.7838611926 0.2988353042 1
-35.8894236088 111.5560157299 -9.1757502889 -0.210903091 1
-32.333871603 111.5560157299 -8.684043384 -4.5179391002 1
-28.7783195972 111.5560157299 -10.1973816745 4.376071362 1
-25.2227675915 111.5560157299 -9.7024958585 -4.6312319598 1
-21.6672155857 111.5560157299 -13.7649146584 0.4414447883 1
-18.1116635799 111.5560157299 -7.8805912636 0.1231651446 1
-14.5561115742 111.5560157299 -11.4722486507 3.6837398453 1
-11.0005595684 111.5560157299 -8.7310736076 -1.3866057013 1
-7.4450075626 111.5560157299 -10.4142187329 2.4788618953 1
-3.8894555569 111.5560157299 -10.8429478768 1.1524435775 1
-0.3339035511 111.5560157299 -6.8291310955 -0.7715747062 1
3.2216484547 111.5560157299 -9.6044441116 3.1929866136 1
6.7772004604 111.5560157299 -10.608785753 -0.0490082128 1
10.3327524662 111.5560157299 -10.0458005968 0.6864328706 1
13.888304472 111.5560157299 0 -0 0
17.4438564777 111.5560157299 0 -0 0
20.9994084835 111.5560157299 0 -0 0
24.5549604893 111.5560157299 0 -0 0
28.110512495 111.5560157299 0 -0 0
31.6660645008 111.5560157299 0 -0 0
35.2216165066 111.5560157299 -8.6209066774 2.5987245044 1
38.7771685123 111.5560157299 -10.3427991968 2.1307358084 1
42.3327205181 111.5560157299 -7.0108588468 -3.5912335322 1
45.8882725239 111.5560157299 -8.4938032151 -1.2290023532 1
49.4438245296 111.5560157299 -6.5616433869 -1.7583440334 1
52.9993765354 111.5560157299 0 -0 0
-124.778223753 108.0004637241 -7.8358922414 0.2440344089 1
-121.2226717472 108.0004637241 -9.5493783071 -0.9483398241 1
-117.6671197414 108.0004637241 -8.7071787925 2.5890818074 1
-114.1115677357 108.0004637241 -9.1510960673 -1.0498353913 1
-110.5560157299 108.0004637241 -10.252959637 -0.2880799883 1
-107.0004637241 108.0004637241 -8.8753255292 2.7673304171 1
-103.4449117184 108.0004637241 -9.974787255 -3.2250759552 1
-99.8893597126 108.0004637241 -10.7000381622 -2.6827713818 1
-96.3338077068 108.0004637241 -11.2488241821 -0.6621848431 1
-92.7782557011 108.0004637241 -10.6659355103 -1.7556772802 1
-89.2227036953 108.0004637241 -9.551550563 1.8017008487 1
-85.6671516895 108.0004637241 -8.8171337954 2.0330372739 1
-82.1115996838 108.0004637241 -9.7512215014 -1.6664735026 1
-78.556047678 108.0004637241 -10.4230137203 1.2328347071 1
-75.0004956722 108.0004637241 -10.4668473723 0.0297404794 1
-71.4449436665 108.0004637241 -11.2853816597 1.7081878805 1
-67.8893916607 108.0004637241 0 -0 0
-64.3338396549 108.0004637241 0 -0 0
-60.7782876492 108.0004637241 -9.9983111971 1.056034268 1
-57.2227356434 108.0004637241 -9.3977265869 1.9736269575 1
-53.6671836376 108.0004637241 -11.1236810483 4.3480616231 1
-50.1116316319 108.0004637241 -8.9751433378 4.2836180308 1
-46.5560796261 108.0004637241 -9.7253486972 2.2294763193 1
-43.0005276203 108.0004637241 -10.6352943394 -1.3282373614 1
-39.4449756145 108.0004637241 -9.8066758395 4.2760769472 1
-35.8894236088 108.0004637241 -11.1317519504 4.3208819332 1
-32.333871603 108.0004637241 -10.7634750993 -4.4055116109 1
-28.7783195972 108.0004637241 -12.4820121015 0.6560212877 1
-25.2227675915 108.0004637241 -8.6931209412 1.131515746 1
-21.6672155857 108.0004637241 -10.4454603648 3.5560182615 1
-18.1116635799 108.0004637241 -10.7841910033 3.4626642388 1
-14.5561115742 108.0004637241 -10.6962587901 2.6115461125 1
-11.0005595684 108.0004637241 -9.1132846858 3.8827750015 1
-7.4450075626 108.0004637241 -9.5399122162 -2.917198415 1
-3.8894555569 108.0004637241 -12.9435370116 -1.6430025423 1
-0.3339035511 108.0004637241 -4.9661655656 3.0482401948 1
3.2216484547 108.0004637241 -9.2200254563 -3.1814718912 1
6.7772004604 108.0004637241 -11.3189898143 2.0946198462 1
10.3327524662 108.0004637241 -9.0967366874 2.5574339813 1
13.888304472 108.0004637241 0 -0 0
17.4438564777 108.0004637241 0 -0 0
20.9994084835 108.0004637241 0 -0 0
24.5549604893 108.0004637241 0 -0 0
28.110512495 108.0004637241 0 -0 0
31.6660645008 108.0004637241 0 -0 0
35.2216165066 108.0004637241 -7.8604228387 4.2548135641 1
38.7771685123 108.0004637241 -7.0442374134 1.9600106216 1
42.3327205181 108.0004637241 -6.3673765973 3.2286257392 1
45.8882725239 108.0004637241 -6.2211643473 -0.8011209189 1
49.4438245296 108.0004637241 -7.3901912443 7.0039712061 1
52.9993765354 108.0004637241 0 -0 0
-124.778223753 104.4449117184 -9.4595917291 -1.6249710521 1
-121.2226717472 104.4449117184 -10.1391546195 1.7952900447 1
-117.6671197414 104.4449117184 -10.1686125291 -1.1881356849 1
-114.1115677357 104.4449117184 -10.5434944511 -1.0335346416 1
-110.5560157299 104.4449117184 -11.1222152171 -0.4977644967 1
-107.0004637241 104.4449117184 -11.4861122352 -2.7739708092 1
-103.4449117184 104.4449117184 -10.4703441745 -1.2649240486 1
-99.8893597126 104.4449117184 -10.3258979861 -1.1945641496 1
-96.3338077068 104.4449117184 -10.2593527804 0.3445056603 1
-92.7782557011 104.4449117184 -11.7850181818 -1.2770745533 1
-89.2227036953 104.4449117184 -11.2821144455 -0.3381654988 1
-85.6671516895 104.4449117184 -12.8884535465 0.8654762081 1
-82.1115996838 104.4449117184 -9.9723500898 -2.3030681113 1
-78.556047678 104.4449117184 -12.1858612111 2.501343861 1
-75.0004956722 104.4449117184 -11.7088656003 1.7556772802 1
-71.4449436665 104.4449117184 -10.5691200067 -0.405470111 1
-67.8893916607 104.4449117184 0 -0 0
-64.3338396549 104.4449117184 0 -0 0
-60.7782876492 104.4449117184 -11.5300518509 0.0231707298 1
-57.2227356434 104.4449117184 -10.587557691 4.3725039173 1
-53.6671836376 104.4449117184 -9.7023015917 1.9325130406 1
-50.1116316319 104.4449117184 -9.3320290908 3.7868072074 1
-46.5560796261 104.4449117184 -10.7077911732 -6.6355177488 1
-43.0005276203 104.4449117184 -12.0628196909 2.8090977769 1
-39.4449756145 104.4449117184 -9.7556013345 -1.7585559609 1
-35.8894236088 104.4449117184 -10.8445020112 0.5937322907 1
-32.333871603 104.4449117184 -7.351956008 3.3878362036 1
-28.7783195972 104.4449117184 -8.6373840332 4.6582173829 1
-25.2227675915 104.4449117184 -10.6772912872 1.767916088 1
-21.6672155857 104.4449117184 -11.8992470541 0.3084780012 1
-18.1116635799 104.4449117184 -10.4184749417 3.2169520712 1
-14.5561115742 104.4449117184 -7.647753686 4.0179140445 1
-11.0005595684 104.4449117184 -8.8227322111 -1.8958495992 1
-7.4450075626 104.4449117184 -10.9963479981 -1.3355135357 1
-3.8894555569 104.4449117184 -9.2781642083 5.6380637481 1
-0.3339035511 104.4449117184 -9.8598342974 2.2548193051 1
3.2216484547 104.4449117184 -8.5525954099 2.2720384069 1
6.7772004604 104.4449117184 -8.8082328443 -3.4087993562 1
10.3327524662 104.4449117184 -11.9322370871 6.0788550936 1
13.888304472 104.4449117184 -8.9776158242 -8.0127986442 1
17.4438564777 104.4449117184 0 -0 0
20.9994084835 104.4449117184 0 -0 0
24.5549604893 104.4449117184 0 -0 0
28.110512495 104.4449117184 0 -0 0
31.6660645008 104.4449117184 0 -0 0
35.2216165066 104.4449117184 -5.2360551181 -2.6410216827 1
38.7771685123 104.4449117184 -4.5212769569 0.0862367939 1
42.3327205181 104.4449117184 -8.6348938862 -3.5969908934 1
45.8882725239 104.4449117184 -7.4970732998 1.9500147123 1
49.4438245296 104.4449117184 -8.2480557264 5.8742038612 1
52.9993765354 104.4449117184 0 -0 0
-124.778223753 100.8893597126 -9.3148276496 2.1599641299 1
-121.2226717472 100.8893597126 -11.2123373469 -0.7243502158 1
-117.6671197414 100.8893597126 -10.0726800563 1.0514071863 1
-114.1115677357 100.8893597126 -11.3420369198 -2.6020976823 1
-110.5560157299 100.8893597126 -11.473431912 -2.2060230197 1
-107.0004637241 100.8893597126 -12.0056699335 -0.2412087102 1
-103.4449117184 100.8893597126 -11.2183949386 0.5431699436 1
-99.8893597126 100.8893597126 -9.3538399531 -2.1127749607 1
-96.3338077068 100.8893597126 -9.0803652953 -1.3003159255 1
-92.7782557011 100.8893597126 -10.858718808 -0.1471129415 1
-89.2227036953 100.8893597126 -11.1166697833 -0.8198411731 1
-85.6671516895 100.8893597126 -11.3426550414 -2.2943084452 1
-82.1115996838 100.8893597126 -10.2506460961 -0.4561914037 1
-78.556047678 100.8893597126 -11.1013050463 0.1386181847 1
-75.0004956722 100.8893597126 -10.7383087197 0.9075967802 1
-71.4449436665 100.8893597126 -12.8448848038 0.4508755579 1
-67.8893916607 100.8893597126 0 -0 0
-64.3338396549 100.8893597126 0 -0 0
-60.7782876492 100.8893597126 -11.0489413162 0.539690802 1
-57.2227356434 100.8893597126 -11.7190910977 0.3774780327 1
-53.6671836376 100.8893597126 -9.2948888128 3.7857122492 1
-50.1116316319 100.8893597126 -12.0438168667 0.5928492599 1
-46.5560796261 100.8893597126 -13.7670692537 2.0877145448 1
-43.0005276203 100.8893597126 -12.6258578288 3.0986435964 1
-39.4449756145 100.8893597126 -11.3416660468 1.6923816281 1
-35.8894236088 100.8893597126 -10.9874647076 0.6798984422 1
-32.333871603 100.8893597126 -9.8742806823 0.685073003 1
-28.7783195972 100.8893597126 -11.1868707368 3.7012061957 1
-25.2227675915 100.8893597126 -6.3687188043 -4.5446419535 1
-21.6672155857 100.8893597126 -13.3765753461 -2.6185220563 1
-18.1116635799 100.8893597126 -9.6797313229 0.1290814513 1
-14.5561115742 100.8893597126 -10.4649400256 -0.8187285542 1
-11.0005595684 100.8893597126 -7.3279022473 2.2337325281 1
-7.4450075626 100.8893597126 -9.2414124638 -0.1780720035 1
-3.8894555569 100.8893597126 -10.7298316235 2.9601843573 1
-0.3339035511 100.8893597126 -9.9270506066 4.7803935329 1
3.2216484547 100.8893597126 -8.1529179813 0.7406686261 1
6.7772004604 100.8893597126 -9.5699352655 -0.5318671486 1
10.3327524662 100.8893597126 -9.4234404456 -0.7146545369 1
13.888304472 100.8893597126 0 -0 0
17.4438564777 100.8893597126 0 -0 0
20.9994084835 100.8893597126 0 -0 0
24.5549604893 100.8893597126 0 -0 0
28.110512495 100.8893597126 0 -0 0
31.6660645008 100.8893597126 0 -0 0
35.2216165066 100.8893597126 -6.8324159703 5.159284415 1
38.7771685123 100.8893597126 -5.0243572993 -1.8658971924 1
42.3327205181 100.8893597126 -7.2836624012 1.6318233716 1
45.8882725239 100.8893597126 -9.6794134318 0.0511274869 1
49.4438245296 100.8893597126 -7.6730083687 0.3115156274 1
52.9993765354 100.8893597126 0 -0 0
-124.778223753 97.3338077068 -8.5056888105 -3.2297206975 1
-121.2226717472 97.3338077068 -8.3408622699 -2.6187339837 1
-117.6671197414 97.3338077068 -10.9089456034 -1.515439904 1
-114.1115677357 97.3338077068 -8.8680846761 -0.9839259678 1
-110.5560157299 97.3338077068 -10.950765945 -0.3441877692 1
-107.0004637241 97.3338077068 -11.4668621624 -0.5759480492 1
-103.4449117184 97.3338077068 -10.0822697714 0.2758235199 1
-99.8893597126 97.3338077068 -11.3878838821 -1.9859717289 1
-96.3338077068 97.3338077068 -12.0276044201 -1.7253010186 1
-92.7782557011 97.3338077068 -12.190064438 0.2326256502 1
-89.2227036953 97.3338077068 -12.3425815284 -2.0437042867 1
-85.6671516895 97.3338077068 -11.7981046992 1.5888904111 1
-82.1115996838 97.3338077068 -12.4187164493 -1.1815835959 1
-78.556047678 97.3338077068 -10.7593954967 1.9255547574 1
-75.0004956722 97.3338077068 -14.7810889133 0.7594948441 1
-71.4449436665 97.3338077068 -10.1398787048 1.1327873105 1
-67.8893916607 97.3338077068 0 -0 0
-64.3338396549 97.3338077068 0 -0 0
-60.7782876492 97.3338077068 -9.1011165205 1.6497488981 1
-57.2227356434 97.3338077068 -12.2162374728 2.2125221268 1
-53.6671836376 97.3338077068 -10.1700783603 0.7933855685 1
-50.1116316319 97.3338077068 -11.9533062034 -0.3392074752 1
-46.5560796261 97.3338077068 -10.1122398389 0.8503763803 1
-43.0005276203 97.3338077068 -11.2378392781 3.1166044441 1
-39.4449756145 97.3338077068 -10.6468267225 -0.3109504876 1
-35.8894236088 97.3338077068 -9.7844058012 3.7018066567 1
-32.333871603 97.3338077068 -11.8132045269 1.5160756863 1
-28.7783195972 97.3338077068 -9.2624109377 -3.0657242059 1
-25.2227675915 97.3338077068 -7.2711940054 -3.5971674996 1
-21.6672155857 97.3338077068 -11.1942705354 5.7390294969 1
-18.1116635799 97.3338077068 -10.7121710062 3.0297848498 1
-14.5561115742 97.3338077068 -9.8756935317 1.9140930168 1
-11.0005595684 97.3338077068 -10.7649939124 2.2639675048 1
-7.4450075626 97.3338077068 -7.950244738 1.3218265573 1
-3.8894555569 97.3338077068 -10.5420639411 3.7439272288 1
-0.3339035511 97.3338077068 -9.6770822303 4.392866609 1
3.2216484547 97.3338077068 -9.4162878956 0.6718981826 1
6.7772004604 97.3338077068 -8.6951342516 2.3642091682 1
10.3327524662 97.3338077068 -9.4042256941 1.2132137614 1
13.888304472 97.3338077068 -8.9472748838 0.5707028458 1
17.4438564777 97.3338077068 0 -0 0
20.9994084835 97.3338077068 0 -0 0
24.5549604893 97.3338077068 0 -0 0
28.110512495 97.3338077068 0 -0 0
31.6660645008 97.3338077068 0 -0 0
35.2216165066 97.3338077068 -7.1902907179 0.4779139629 1
38.7771685123 97.3338077068 -7.4884902398 1.2105116869 1
42.3327205181 97.3338077068 -9.2455273876 -0.8364598139 1
45.8882725239 97.3338077068 -8.8710163386 -0.061317663 1
49.4438245296 97.3338077068 -8.0257615373 3.8723375767 1
52.9993765354 97.3338077068 0 -0 0
-124.778223753 93.7782557011 -9.2209261478 -0.765216884 1
-121.2226717472 93.7782557011 -9.0680911663 -3.8436037525 1
-117.6671197414 93.7782557011 -12.6501058563 -2.2194097675 1
-114.1115677357 93.7782557011 -10.1566916124 -0.5601417967 1
-110.5560157299 93.7782557011 -12.1305834792 1.3322110003 1
-107.0004637241 93.7782557011 -11.3156519577 -0.4184330041 1
-103.4449117184 93.7782557011 -11.6650849302 -1.0686792699 1
-99.8893597126 93.7782557011 -10.5274939318 -0.6639685654 1
-96.3338077068 93.7782557011 -11.8725795221 -1.9080177645 1
-92.7782557011 93.7782557011 -11.3935706009 -2.5411332316 1
-89.2227036953 93.7782557011 -10.0432044861 -1.3410589695 1
-85.6671516895 93.7782557011 -10.3806105783 -1.4538749924 1
-82.1115996838 93.7782557011 -11.6492963384 0.9162151614 1
-78.556047678 93.7782557011 -10.7147847776 -0.0017484011 1
-75.0004956722 93.7782557011 -13.9610181522 2.5772138726 1
-71.4449436665 93.7782557011 -11.4708534619 -0.7788508805 1
-67.8893916607 93.7782557011 0 -0 0
-64.3338396549 93.7782557011 -12.7602021441 6.9052660164 1
-60.7782876492 93.7782557011 -12.2991717313 2.1731919322 1
-57.2227356434 93.7782557011 -11.1237870121 1.3458273361 1
-53.6671836376 93.7782557011 -11.9136227965 -0.0523813907 1
-50.1116316319 93.7782557011 -10.3617843604 2.7253687906 1
-46.5560796261 93.7782557011 -10.6536613813 5.1586133115 1
-43.0005276203 93.7782557011 -9.9472366921 0.2566440896 1
-39.4449756145 93.7782557011 -10.6502528822 1.1868287992 1
-35.8894236088 93.7782557011 -8.2698136068 6.0557903275 1
-32.333871603 93.7782557011 -11.2837568829 -1.3764508464 1
-28.7783195972 93.7782557011 -8.3599357365 2.5875806549 1
-25.2227675915 93.7782557011 -12.660825851 -0.996606291 1
-21.6672155857 93.7782557011 -9.9185558497 3.7738089932 1
-18.1116635799 93.7782557011 -10.9120362114 4.6199291647 1
-14.5561115742 93.7782557011 -10.7229439827 -0.618174585 1
-11.0005595684 93.7782557011 -10.7936394335 0.9507240074 1
-7.4450075626 93.7782557011 -11.220266964 -0.0137576208 1
-3.8894555569 93.7782557011 -7.1231097299 1.9514628829 1
-0.3339035511 93.7782557011 -9.9380708317 4.4934438241 1
3.2216484547 93.7782557011 -7.8076352538 4.6452898111 1
6.7772004604 93.7782557011 -8.8807649993 -0.7019565531 1
10.3327524662 93.7782557011 -8.1728921394 0.4142121166 1
13.888304472 93.7782557011 -12.2915600053 4.9609027016 1
17.4438564777 93.7782557011 0 -0 0
20.9994084835 93.7782557011 0 -0 0
24.5549604893 93.7782557011 0 -0 0
28.110512495 93.7782557011 0 -0 0
31.6660645008 93.7782557011 0 -0 0
35.2216165066 93.7782557011 -7.9721968852 1.158783739 1
38.7771685123 93.7782557011 -5.4696697628 -2.0416733157 1
42.3327205181 93.7782557011 -9.3217152903 -0.8451135164 1
45.8882725239 93.7782557011 -6.9484638861 -0.1943021108 1
49.4438245296 93.7782557011 -7.3886547706 -0.1016545128 1
52.9993765354 93.7782557011 0 -0 0
-124.778223753 90.2227036953 -10.4654698441 0.2279632472 1
-121.2226717472 90.2227036953 -10.7551216273 -4.5830361353 1
-117.6671197414 90.2227036953 -9.8954910836 -3.9707248753 1
-114.1115677357 90.2227036953 -11.8684116164 -1.3126430364 1
-110.5560157299 90.2227036953 -12.519682198 0.1524464479 1
-107.0004637241 90.2227036953 -10.3844605929 2.6459666555 1
-103.4449117184 90.2227036953 -9.470576633 0.8114877012 1
-99.8893597126 90.2227036953 -9.4546290956 -0.8519481753 1
-96.3338077068 90.2227036953 -10.3204938373 1.1751904525 1
-92.7782557011 90.2227036953 -10.7389798232 -0.2135168623 1
-89.2227036953 90.2227036953 -12.7152028914 -2.0323131886 1
-85.6671516895 90.2227036953 -14.2025270928 -2.4409622107 1
-82.1115996838 90.2227036953 -12.5915785708 -0.4819582443 1
-78.556047678 90.2227036953 -13.122492046 -2.7698205642 1
-75.0004956722 90.2227036953 -11.4184367499 1.3761152947 1
-71.4449436665 90.2227036953 -12.4381607889 0.8497759193 1
-67.8893916607 90.2227036953 0 -0 0
-64.3338396549 90.2227036953 -11.3134973624 1.6723191669 1
-60.7782876492 90.2227036953 -9.9435986049 0.1090013296 1
-57.2227356434 90.2227036953 -11.1496244951 2.7719574988 1
-53.6671836376 90.2227036953 -9.2361672605 -0.3191626746 1
-50.1116316319 90.2227036953 -9.2597088632 -0.4552907122 1
-46.5560796261 90.2227036953 -9.6603046439 1.2675908018 1
-43.0005276203 90.2227036953 -11.2139091418 2.4467372325 1
-39.4449756145 90.2227036953 -11.4959845202 3.1131429631 1
-35.8894236088 90.2227036953 -10.1588462077 -2.6473971655 1
-32.333871603 90.2227036953 -11.408193592 3.973320986 1
-28.7783195972 90.2227036953 -11.1452623226 3.6285327558 1
-25.2227675915 90.2227036953 -8.6991961935 -0.9741066647 1
-21.6672155857 90.2227036953 -9.9918650718 -0.6402326959 1
-18.1116635799 90.2227036953 -8.5036225183 -0.445983567 1