TITLE = "B00002"
VARIABLES = "x", "y", "Vx", "Vy", "isValid"
ZONE T="Frame 0", I=51, J=39, F=POINT
-124.778223753 125.778223753 -11.4581201569 1.1527084867 1
-121.2226717472 125.778223753 -10.2178856512 0.0749516595 1
-117.6671197414 125.778223753 -8.9578535935 -1.4693103718 1
-114.1115677357 125.778223753 -11.1296326764 0.4564033311 1
-110.5560157299 125.778223753 -11.7504740145 -0.5577399528 1
-107.0004637241 125.778223753 -10.9348713895 -1.4095291825 1
-103.4449117184 125.778223753 -10.7743540395 1.2934106242 1
-99.8893597126 125.778223753 -10.6841436067 0.8347643947 1
-96.3338077068 125.778223753 -8.8764028268 0.8677367671 1
-92.7782557011 125.778223753 -10.9919505044 0.8615378904 1
-89.2227036953 125.778223753 -10.2354756259 1.5786649137 1
-85.6671516895 125.778223753 -9.3327884973 -0.0881794618 1
-82.1115996838 125.778223753 -11.7400012685 -1.0700038162 1
-78.556047678 125.778223753 -9.8868550418 0.7592299348 1
-75.0004956722 125.778223753 -9.36233471 -0.926246392 1
-71.4449436665 125.778223753 -10.6484691599 1.1587307572 1
-67.8893916607 125.778223753 0 -0 0
-64.3338396549 125.778223753 0 -0 0
-60.7782876492 125.778223753 0 -0 0
-57.2227356434 125.778223753 -9.8784839092 -0.8642929467 1
-53.6671836376 125.778223753 -11.1085282388 1.3562824215 1
-50.1116316319 125.778223753 -11.0086397877 1.4262361264 1
-46.5560796261 125.778223753 -9.860823292 1.1979373274 1
-43.0005276203 125.778223753 -10.8207308204 -0.0972570191 1
-39.4449756145 125.778223753 -9.613097814 -0.7473973212 1
-35.8894236088 125.778223753 -10.8759908917 1.8924057788 1
-32.333871603 125.778223753 -10.746785816 3.2133139841 1
-28.7783195972 125.778223753 -11.5300871721 4.7843141899 1
-25.2227675915 125.778223753 -8.8818776182 1.1471630529 1
-21.6672155857 125.778223753 -6.2147005614 1.5117135138 1
-18.1116635799 125.778223753 -7.9329903149 3.2456505742 1
-14.5561115742 125.778223753 -10.2360584263 3.5507377369 1
-11.0005595684 125.778223753 -8.228646708 0.5419160398 1
-7.4450075626 125.778223753 -10.2911948733 5.0895602982 1
-3.8894555569 125.778223753 -8.892544631 1.3416594305 1
-0.3339035511 125.778223753 -9.6573906421 -3.7802197972 1
3.2216484547 125.778223753 -9.6122324438 0.1331433933 1
6.7772004604 125.778223753 -11.0347245194 2.5522240992 1
10.3327524662 125.778223753 -8.6443069952 2.4982355924 1
13.888304472 125.778223753 0 -0 0
17.4438564777 125.778223753 0 -0 0
20.9994084835 125.778223753 0 -0 0
24.5549604893 125.778223753 0 -0 0
28.110512495 125.778223753 0 -0 0
31.6660645008 125.778223753 0 -0 0
35.2216165066 125.778223753 0 -0 0
38.7771685123 125.778223753 -10.0109738597 -0.9899482383 1
42.3327205181 125.778223753 -10.1333089552 1.430174444 1
45.8882725239 125.778223753 -8.9004919087 -1.1213962124 1
49.4438245296 125.778223753 -8.2127344919 4.236729092 1
52.9993765354 125.778223753 0 -0 0
-124.778223753 122.2226717472 -11.2366030349 -3.6343607595 1
-121.2226717472 122.2226717472 -11.4139509532 1.2393867961 1
-117.6671197414 122.2226717472 -9.9851363767 0.1292933788 1
-114.1115677357 122.2226717472 -9.7750456741 2.2464658331 1
-110.5560157299 122.2226717472 -10.4046113571 1.8196087146 1
-107.0004637241 122.2226717472 -12.1045517294 1.9958793352 1
-103.4449117184 122.2226717472 -10.6968415905 0.6907067399 1
-99.8893597126 122.2226717472 -10.5553270646 3.238833576 1
-96.3338077068 122.2226717472 -9.5953312331 -1.5841220445 1
-92.7782557011 122.2226717472 -9.6959261089 -0.1447110976 1
-89.2227036953 122.2226717472 -9.761853193 3.421038164 1
-85.6671516895 122.2226717472 -11.3105656999 4.0255434312 1
-82.1115996838 122.2226717472 -10.2198636403 -0.0411492381 1
-78.556047678 122.2226717472 -11.4903684439 0.0044151543 1
-75.0004956722 122.2226717472 -10.0203869686 0.4426810315 1
-71.4449436665 122.2226717472 -9.1924395722 2.8453197028 1
-67.8893916607 122.2226717472 0 -0 0
-64.3338396549 122.2226717472 0 -0 0
-60.7782876492 122.2226717472 0 -0 0
-57.2227356434 122.2226717472 -10.1477730007 -0.1124098287 1
-53.6671836376 122.2226717472 -9.483539526 -0.8611140356 1
-50.1116316319 122.2226717472 -11.0482702128 3.2284667937 1
-46.5560796261 122.2226717472 -10.9037180607 -0.2105851999 1
-43.0005276203 122.2226717472 -9.850809722 -0.1993353867 1
-39.4449756145 122.2226717472 -10.2463192449 -0.2593991459 1
-35.8894236088 122.2226717472 -12.3247619657 2.3859140668 1
-32.333871603 122.2226717472 -8.8091511964 -0.25722689 1
-28.7783195972 122.2226717472 -11.2457512347 -4.4983181545 1
-25.2227675915 122.2226717472 -7.2131612172 3.7915579135 1
-21.6672155857 122.2226717472 -9.3472348822 -0.2820400572 1
-18.1116635799 122.2226717472 -11.2725070698 3.9357745138 1
-14.5561115742 122.2226717472 -8.5216540085 0.721294929 1
-11.0005595684 122.2226717472 -9.8896454193 -1.869146746 1
-7.4450075626 122.2226717472 -10.5787273824 0.7833013561 1
-3.8894555569 122.2226717472 -10.2877863742 -3.1559522993 1
-0.3339035511 122.2226717472 -11.0888366506 1.3842568392 1
3.2216484547 122.2226717472 -7.5647664457 3.037343594 1
6.7772004604 122.2226717472 -10.8828078899 2.3266980172 1
10.3327524662 122.2226717472 -9.9007362869 2.9375081248 1
13.888304472 122.2226717472 0 -0 0
17.4438564777 122.2226717472 0 -0 0
20.9994084835 122.2226717472 0 -0 0
24.5549604893 122.2226717472 0 -0 0
28.110512495 122.2226717472 0 -0 0
31.6660645008 122.2226717472 0 -0 0
35.2216165066 122.2226717472 0 -0 0
38.7771685123 122.2226717472 -5.7683814427 -0.0392065703 1
42.3327205181 122.2226717472 -10.8282189221 -0.3713144773 1
45.8882725239 122.2226717472 -8.1171199102 -2.3684123951 1
49.4438245296 122.2226717472 -8.8392448882 2.9940044393 1
52.9993765354 122.2226717472 0 -0 0
-124.778223753 118.6671197414 -8.6175864813 -0.5494041415 1
-121.2226717472 118.6671197414 -11.0422656029 -0.7041641303 1
-117.6671197414 118.6671197414 -10.7418761644 0.1364106075 1
-114.1115677357 118.6671197414 -10.7273414764 0.5912421437 1
-110.5560157299 118.6671197414 -11.5201089234 -3.1838030927 1
-107.0004637241 118.6671197414 -10.9456796873 1.1223322251 1
-103.4449117184 118.6671197414 -9.5225341689 0.321175985 1
-99.8893597126 118.6671197414 -9.5791717683 1.26038527 1
-96.3338077068 118.6671197414 -9.973815921 -1.5832566742 1
-92.7782557011 118.6671197414 -11.1126961444 -0.6103332709 1
-89.2227036953 118.6671197414 -11.8590868105 -0.1073235709 1
-85.6671516895 118.6671197414 -9.9603585307 1.5363853961 1
-82.1115996838 118.6671197414 -11.9203691523 -0.3901936771 1
-78.556047678 118.6671197414 -10.2740817352 -1.6086349812 1
-75.0004956722 118.6671197414 -11.1200429612 1.3713822493 1
-71.4449436665 118.6671197414 -10.6068784063 -0.8351529283 1
-67.8893916607 118.6671197414 0 -0 0
-64.3338396549 118.6671197414 0 -0 0
-60.7782876492 118.6671197414 -5.437456797 2.8220430093 1
-57.2227356434 118.6671197414 -9.9105909113 0.3189684078 1
-53.6671836376 118.6671197414 -12.1782318245 0.3413620705 1
-50.1116316319 118.6671197414 -11.8196683128 -0.0839938956 1
-46.5560796261 118.6671197414 -10.5169858646 3.7944189335 1
-43.0005276203 118.6671197414 -13.2445798929 0.2582688664 1
-39.4449756145 118.6671197414 -10.658058875 2.562431936 1
-35.8894236088 118.6671197414 -9.4333127306 3.2256410949 1
-32.333871603 118.6671197414 -10.2239609035 3.1669725245 1
-28.7783195972 118.6671197414 -10.4001962028 2.4673648334 1
-25.2227675915 118.6671197414 -10.5379843385 1.3095524284 1
-21.6672155857 118.6671197414 -10.840863924 5.3216384692 1
-18.1116635799 118.6671197414 -10.1259091566 2.9378436765 1
-14.5561115742 118.6671197414 -9.0523025745 2.915856208 1
-11.0005595684 118.6671197414 -9.3020590234 2.1970690867 1
-7.4450075626 118.6671197414 -10.1379713582 1.8320771104 1
-3.8894555569 118.6671197414 -10.5340636815 3.6723664078 1
-0.3339035511 118.6671197414 -11.2674384726 -1.0889713191 1
3.2216484547 118.6671197414 -9.9693831061 1.9311531731 1
6.7772004604 118.6671197414 -9.060444119 -1.0447138123 1
10.3327524662 118.6671197414 -11.1258533043 4.0741984317 1
13.888304472 118.6671197414 0 -0 0
17.4438564777 118.6671197414 0 -0 0
20.9994084835 118.6671197414 0 -0 0
24.5549604893 118.6671197414 0 -0 0
28.110512495 118.6671197414 0 -0 0
31.6660645008 118.6671197414 0 -0 0
35.2216165066 118.6671197414 0 -0 0
38.7771685123 118.6671197414 -6.637954914 0.3683828148 1
42.3327205181 118.6671197414 -9.9673168139 -1.7819562787 1
45.8882725239 118.6671197414 -10.1881628323 -1.761363999 1
49.4438245296 118.6671197414 -8.4638684689 2.6367301527 1
52.9993765354 118.6671197414 0 -0 0
-124.778223753 115.1115677357 -9.4636360104 0.0802498447 1
-121.2226717472 115.1115677357 -10.3553382351 -0.9106697276 1
-117.6671197414 115.1115677357 -11.639300429 0.7227607602 1
-114.1115677357 115.1115677357 -11.098090814 1.7619114781 1
-110.5560157299 115.1115677357 -11.6696766907 0.8659177235 1
-107.0004637241 115.1115677357 -9.2920101322 0.7350702104 1
-103.4449117184 115.1115677357 -10.0744107968 -0.7793806991 1
-99.8893597126 115.1115677357 -10.438484421 -1.6720012758 1
-96.3338077068 115.1115677357 -8.8962357 1.2929337875 1
-92.7782557011 115.1115677357 -9.5950486632 0.5309841177 1
-89.2227036953 115.1115677357 -10.5774734786 0.3859374684 1
-85.6671516895 115.1115677357 -10.2685716226 -0.7218247475 1
-82.1115996838 115.1115677357 -10.8627277681 1.0650411828 1
-78.556047678 115.1115677357 -10.6283360562 1.0660301773 1
-75.0004956722 115.1115677357 -11.1309748833 -0.1579035787 1
-71.4449436665 115.1115677357 -9.8945374103 -2.2161072321 1
-67.8893916607 115.1115677357 0 -0 0
-64.3338396549 115.1115677357 0 -0 0
-60.7782876492 115.1115677357 -8.3112983967 3.3104473789 1
-57.2227356434 115.1115677357 -11.7798612816 0.2006775936 1
-53.6671836376 115.1115677357 -9.9894455673 1.3754265306 1
-50.1116316319 115.1115677357 -12.3073309365 0.1426094841 1
-46.5560796261 115.1115677357 -11.1840626987 0.2652801314 1
-43.0005276203 115.1115677357 -12.2932554245 2.2731333651 1
-39.4449756145 115.1115677357 -10.3485212368 0.0176782778 1
-35.8894236088 115.1115677357 -10.0883097025 3.3461394863 1
-32.333871603 115.1115677357 -9.8833935608 -0.1580625242 1
-28.7783195972 115.1115677357 -9.6170184711 2.7493165876 1
-25.2227675915 115.1115677357 -12.0586871064 -0.1800853139 1
-21.6672155857 115.1115677357 -9.6997231416 -1.0606436891 1
-18.1116635799 115.1115677357 -11.8095311185 -0.1060873277 1
-14.5561115742 115.1115677357 -11.6578440771 -0.5520179128 1
-11.0005595684 115.1115677357 -11.2671559027 -3.8329897215 1
-7.4450075626 115.1115677357 -10.3826768705 2.6238379021 1
-3.8894555569 115.1115677357 -7.5068042999 -0.6730814439 1
-0.3339035511 115.1115677357 -9.8716845716 3.8532287889 1
3.2216484547 115.1115677357 -10.0833294085 6.4943564352 1
6.7772004604 115.1115677357 -9.7267615466 -2.8429355195 1
10.3327524662 115.1115677357 -9.5830217829 1.6827565917 1
13.888304472 115.1115677357 0 -0 0
17.4438564777 115.1115677357 0 -0 0
20.9994084835 115.1115677357 0 -0 0
24.5549604893 115.1115677357 0 -0 0
28.110512495 115.1115677357 0 -0 0
31.6660645008 115.1115677357 0 -0 0
35.2216165066 115.1115677357 -9.5815912729 -3.4773578723 1
38.7771685123 115.1115677357 -9.2524503496 0.9792635649 1
42.3327205181 115.1115677357 -6.2666051154 -0.6520299882 1
45.8882725239 115.1115677357 -10.7407458849 3.697780036 1
49.4438245296 115.1115677357 -11.5055212535 2.5551910829 1
52.9993765354 115.1115677357 0 -0 0
-124.778223753 111.5560157299 -10.9943170271 -1.3212084357 1
-121.2226717472 111.5560157299 -9.5113903194 -0.7282178909 1
-117.6671197414 111.5560157299 -9.491522125 0.5438057258 1
-114.1115677357 111.5560157299 -9.8095368595 0.3626254536 1
-110.5560157299 111.5560157299 -9.3689044596 -0.8070902075 1
-107.0004637241 111.5560157299 -8.8908668724 0.8065427284 1
-103.4449117184 111.5560157299 -10.0468249126 -0.2841593313 1
-99.8893597126 111.5560157299 -10.5160498519 0.8548268559 1
-96.3338077068 111.5560157299 -9.060585404 0.3297060631 1
-92.7782557011 111.5560157299 -10.0288993862 0.638660901 1
-89.2227036953 111.5560157299 -9.8721084264 -2.1997535005 1
-85.6671516895 111.5560157299 -10.7230676071 1.1031704554 1
-82.1115996838 111.5560157299 -11.7226408818 -1.3124487696 1
-78.556047678 111.5560157299 -10.6009267783 0.6274640696 1
-75.0004956722 111.5560157299 -11.1380391302 -0.8755957417 1
-71.4449436665 111.5560157299 -11.1679208945 1.6535635914 1
-67.8893916607 111.5560157299 0 -0 0
-64.3338396549 111.5560157299 0 -0 0
-60.7782876492 111.5560157299 -11.0555817083 -0.462266656 1
-57.2227356434 111.5560157299 -11.4998521954 2.1349037141 1
-53.6671836376 111.5560157299 -10.1628551679 2.3433519792 1
-50.1116316319 111.5560157299 -10.6299078512 -0.9954760115 1
-46.5560796261 111.5560157299 -9.3826090986 -0.201260394 1
-43.0005276203 111.5560157299 -11.4217392854 3.788396663 1
-39.4449756145 111.5560157299 -7.6887616392 1.8333663354 1
-35.8894236088 111.5560157299 -11.4428613836 4.2957861961 1
-32.333871603 111.5560157299 -13.0854400711 2.6097447296 1
-28.7783195972 111.5560157299 -10.5655702226 1.9245834234 1
-25.2227675915 111.5560157299 -6.7948694981 3.7405187297 1
-21.6672155857 111.5560157299 -10.2984180657 -0.6441533529 1
-18.1116635799 111.5560157299 -8.6632744981 -0.6213888173 1
-14.5561115742 111.5560157299 -9.1193069563 3.7183899763 1
-11.0005595684 111.5560157299 -9.4961315461 1.7580084817 1
-7.4450075626 111.5560157299 -11.508452916 -0.5101975712 1
-3.8894555569 111.5560157299 -10.9167869175 1.8581971633 1
-0.3339035511 111.5560157299 -9.4674683644 2.9894480001 1
3.2216484547 111.5560157299 -9.4742500414 3.4445091243 1
6.7772004604 111.5560157299 -10.8350005991 2.5980357403 1
10.3327524662 111.5560157299 -9.4238289792 -0.3784140454 1
13.888304472 111.5560157299 0 -0 0
17.4438564777 111.5560157299 0 -0 0
20.9994084835 111.5560157299 0 -0 0
24.5549604893 111.5560157299 0 -0 0
28.110512495 111.5560157299 0 -0 0
31.6660645008 111.5560157299 0 -0 0
35.2216165066 111.5560157299 -8.057427024 4.309861708 1
38.7771685123 111.5560157299 -8.5389614134 1.3693159571 1
42.3327205181 111.5560157299 -7.8947020968 -1.9865368687 1
45.8882725239 111.5560157299 -8.373711018 -0.9452845373 1
49.4438245296 111.5560157299 -8.7279123572 -0.6554384873 1
52.9993765354 111.5560157299 0 -0 0
-124.778223753 108.0004637241 -11.1383746819 0.2914531662 1
-121.2226717472 108.0004637241 -11.3570307838 0.7912486338 1
-117.6671197414 108.0004637241 -11.5631655082 -0.7054356947 1
-114.1115677357 108.0004637241 -11.2847282169 1.472718871 1
-110.5560157299 108.0004637241 -9.3885077447 -2.5876336368 1
-107.0004637241 108.0004637241 -9.5303401617 0.9692323343 1
-103.4449117184 108.0004637241 -9.3671560585 -1.0751253952 1
-99.8893597126 108.0004637241 -10.6040527075 2.2399843866 1
-96.3338077068 108.0004637241 -10.1827410229 -2.4913126304 1
-92.7782557011 108.0004637241 -9.8467831013 1.5537281222 1
-89.2227036953 108.0004637241 -9.7527226539 -0.2384889751 1
-85.6671516895 108.0004637241 -10.2587346588 0.9017864371 1
-82.1115996838 108.0004637241 -12.2215709792 -1.4860349763 1
-78.556047678 108.0004637241 -9.0472692986 -0.7962465885 1
-75.0004956722 108.0004637241 -10.0622602921 -1.3356194994 1
-71.4449436665 108.0004637241 -10.3762660665 3.0964183586 1
-67.8893916607 108.0004637241 0 -0 0
-64.3338396549 108.0004637241 0 -0 0
-60.7782876492 108.0004637241 -11.6425499826 2.29616281 1
-57.2227356434 108.0004637241 -12.3835364998 -0.9365425318 1
-53.6671836376 108.0004637241 -10.8844326667 0.6852496092 1
-50.1116316319 108.0004637241 -11.3848109347 -0.5356641813 1
-46.5560796261 108.0004637241 -9.7421439442 3.4722186327 1
-43.0005276203 108.0004637241 -10.0478668891 -1.515439904 1
-39.4449756145 108.0004637241 -10.3587820554 -1.9169187156 1
-35.8894236088 108.0004637241 -10.7581062717 0.825015734 1
-32.333871603 108.0004637241 -7.9140404727 0.4824350809 1
-28.7783195972 108.0004637241 -11.0273777026 1.9972215421 1
-25.2227675915 108.0004637241 -11.1885661561 -1.4230572153 1
-21.6672155857 108.0004637241 -8.3914775989 -1.9067108788 1
-18.1116635799 108.0004637241 -10.3135002328 -2.2030383753 1
-14.5561115742 108.0004637241 -11.6215161875 1.2671846076 1
-11.0005595684 108.0004637241 -11.2558001259 -0.1375762082 1
-7.4450075626 108.0004637241 -9.5442567281 -1.7562070988 1
-3.8894555569 108.0004637241 -7.4877131727 0.2811040445 1
-0.3339035511 108.0004637241 -8.9455264827 -0.6797571572 1
3.2216484547 108.0004637241 -9.6682872429 -0.1647205769 1
6.7772004604 108.0004637241 -9.7278388442 2.8693558029 1
10.3327524662 108.0004637241 -8.975549532 2.245317893 1
13.888304472 108.0004637241 0 -0 0
17.4438564777 108.0004637241 0 -0 0
20.9994084835 108.0004637241 0 -0 0
24.5549604893 108.0004637241 0 -0 0
28.110512495 108.0004637241 0 -0 0
31.6660645008 108.0004637241 0 -0 0
35.2216165066 108.0004637241 -9.6262196527 1.2457092971 1
38.7771685123 108.0004637241 -7.5378340044 4.1373527989 1
42.3327205181 108.0004637241 -9.1214968728 -0.9171511741 1
45.8882725239 108.0004637241 -8.2817345234 -1.1512073343 1
49.4438245296 108.0004637241 -6.8231264856 -1.3962130771 1
52.9993765354 108.0004637241 0 -0 0
-124.778223753 104.4449117184 -10.2139120123 2.1691123296 1
-121.2226717472 104.4449117184 -11.9119273773 2.199594555 1
-117.6671197414 104.4449117184 -11.6869311137 -1.2272009702 1
-114.1115677357 104.4449117184 -13.2901266248 0.5631794229 1
-110.5560157299 104.4449117184 -11.1198133732 -0.3538304662 1
-107.0004637241 104.4449117184 -9.27849976 0.2051104085 1
-103.4449117184 104.4449117184 -9.387200859 1.493664363 1
-99.8893597126 104.4449117184 -9.6434740757 1.4015642441 1
-96.3338077068 104.4449117184 -10.0273452518 -0.3147651809 1
-92.7782557011 104.4449117184 -10.5707094622 0.3827762179 1
-89.2227036953 104.4449117184 -10.6658472072 -0.0645848772 1
-85.6671516895 104.4449117184 -9.1863643199 -0.1316422408 1
-82.1115996838 104.4449117184 -12.8843562833 0.0999590935 1
-78.556047678 104.4449117184 -11.5162765694 -1.6613695842 1
-75.0004956722 104.4449117184 -10.3525831788 -1.7413721803 1
-71.4449436665 104.4449117184 -12.4041287795 -0.5293240197 1
-67.8893916607 104.4449117184 0 -0 0
-64.3338396549 104.4449117184 0 -0 0
-60.7782876492 104.4449117184 -10.880635634 -2.8160913813 1
-57.2227356434 104.4449117184 -11.5143868834 -5.0335231597 1
-53.6671836376 104.4449117184 -11.9675053397 1.0960532266 1
-50.1116316319 104.4449117184 -10.3497221588 -1.9081590494 1
-46.5560796261 104.4449117184 -11.7340496405 -0.8259870679 1
-43.0005276203 104.4449117184 -9.9441990659 0.4841481608 1
-39.4449756145 104.4449117184 -8.5497520505 -2.7546147727 1
-35.8894236088 104.4449117184 -10.5768023752 3.5815025321 1
-32.333871603 104.4449117184 -10.3279642784 4.6931324232 1
-28.7783195972 104.4449117184 -9.696014412 1.4514201666 1
-25.2227675915 104.4449117184 -7.79350676 2.8780801478 1
-21.6672155857 104.4449117184 -8.4968231807 2.9348766928 1
-18.1116635799 104.4449117184 -10.9112944655 2.1395307958 1
-14.5561115742 104.4449117184 -7.9748106565 0.7117228744 1
-11.0005595684 104.4449117184 -10.3244321549 0.9936216467 1
-7.4450075626 104.4449117184 -7.6470472613 1.4000807523 1
-3.8894555569 104.4449117184 -11.945111677 3.977842104 1
-0.3339035511 104.4449117184 -4.6413338328 0.9298668185 1
3.2216484547 104.4449117184 -8.9031056801 4.1442934215 1
6.7772004604 104.4449117184 -9.840566564 -0.8577055365 1
10.3327524662 104.4449117184 -11.1259239467 4.1797382802 1
13.888304472 104.4449117184 0 -0 0
17.4438564777 104.4449117184 0 -0 0
20.9994084835 104.4449117184 0 -0 0
24.5549604893 104.4449117184 0 -0 0
28.110512495 104.4449117184 0 -0 0
31.6660645008 104.4449117184 0 -0 0
35.2216165066 104.4449117184 -8.7222786203 -3.2644061497 1
38.7771685123 104.4449117184 -7.9686647618 1.8716898748 1
42.3327205181 104.4449117184 -10.3693960864 1.0395569121 1
45.8882725239 104.4449117184 -7.9050512185 -0.5608835427 1
49.4438245296 104.4449117184 -9.1353957785 -2.1636551989 1
52.9993765354 104.4449117184 0 -0 0
-124.778223753 100.8893597126 -10.2118280594 0.7614375119 1
-121.2226717472 100.8893597126 -12.2680537237 -0.8301902948 1
-117.6671197414 100.8893597126 -11.9822872763 0.1038620899 1
-114.1115677357 100.8893597126 -10.8134193248 1.4396935167 1
-110.5560157299 100.8893597126 -10.6813002473 2.8201356627 1
-107.0004637241 100.8893597126 -9.2979970814 -1.851380165 1
-103.4449117184 100.8893597126 -8.3020265726 0.3078952008 1
-99.8893597126 100.8893597126 -8.4588528536 -1.6357616892 1
-96.3338077068 100.8893597126 -9.5063393829 -0.0648321259 1
-92.7782557011 100.8893597126 -10.4387316696 -1.2479521954 1
-89.2227036953 100.8893597126 -9.8071703368 0.5700847242 1
-85.6671516895 100.8893597126 -10.0491914354 -0.5298361776 1
-82.1115996838 100.8893597126 -11.0369497571 1.286681929 1
-78.556047678 100.8893597126 -10.2266629779 0.0796670443 1
-75.0004956722 100.8893597126 -12.2288648141 0.6138653944 1
-71.4449436665 100.8893597126 -11.9390187641 -0.2113446064 1
-67.8893916607 100.8893597126 0 -0 0
-64.3338396549 100.8893597126 0 -0 0
-60.7782876492 100.8893597126 -9.8556663917 0.7014443952 1
-57.2227356434 100.8893597126 -10.5991077347 2.6032279618 1
-53.6671836376 100.8893597126 -10.6819360295 1.1350831907 1
-50.1116316319 100.8893597126 -11.673261796 2.0121447637 1
-46.5560796261 100.8893597126 -11.7029846148 3.5640185211 1
-43.0005276203 100.8893597126 -13.0012519087 -0.4858965619 1
-39.4449756145 100.8893597126 -10.4328860053 4.3687951877 1
-35.8894236088 100.8893597126 -12.1608007953 -0.4989830793 1
-32.333871603 100.8893597126 -10.4200997185 1.7084704504 1
-28.7783195972 100.8893597126 -8.7589773829 2.5931790706 1
-25.2227675915 100.8893597126 -10.5684665638 3.0786517777 1
-21.6672155857 100.8893597126 -8.5505467783 1.5155988496 1
-18.1116635799 100.8893597126 -10.3538370826 4.431578682 1
-14.5561115742 100.8893597126 -9.0855045349 3.5987569552 1
-11.0005595684 100.8893597126 -7.4688339729 2.2655569603 1
-7.4450075626 100.8893597126 -7.4673681416 2.9347354079 1
-3.8894555569 100.8893597126 -9.5603985322 3.5682394086 1
-0.3339035511 100.8893597126 -11.4416074798 1.5818438248 1
3.2216484547 100.8893597126 -10.6107460815 2.9328810431 1
6.7772004604 100.8893597126 -8.8056543942 -0.6298305923 1
10.3327524662 100.8893597126 -10.7921559417 -0.3802507496 1
13.888304472 100.8893597126 -6.7378080438 1.7857886326 1
17.4438564777 100.8893597126 0 -0 0
20.9994084835 100.8893597126 0 -0 0
24.5549604893 100.8893597126 0 -0 0
28.110512495 100.8893597126 0 -0 0
31.6660645008 100.8893597126 0 -0 0
35.2216165066 100.8893597126 -9.8689118547 4.1046453358 1
38.7771685123 100.8893597126 -9.1748319368 3.0867226798 1
42.3327205181 100.8893597126 -4.7583884038 2.8601369607 1
45.8882725239 100.8893597126 -8.5527366948 3.6368332459 1
49.4438245296 100.8893597126 -8.2686126848 3.8877552955 1
52.9993765354 100.8893597126 0 -0 0
-124.778223753 97.3338077068 -11.3141684658 1.3756561186 1
-121.2226717472 97.3338077068 -12.6033052206 0.9046827783 1
-117.6671197414 97.3338077068 -12.517421639 2.0045506983 1
-114.1115677357 97.3338077068 -10.403233829 2.3184151877 1
-110.5560157299 97.3338077068 -7.560368952 -0.5084668307 1
-107.0004637241 97.3338077068 -9.1641119422 2.1758057036 1
-103.4449117184 97.3338077068 -8.9405108674 2.24637753 1
-99.8893597126 97.3338077068 -6.6649226765 0.9970831277 1
-96.3338077068 97.3338077068 -7.7355799355 -3.0707221606 1
-92.7782557011 97.3338077068 -8.5331157491 -1.015061636 1
-89.2227036953 97.3338077068 -10.1447883564 -2.6103451906 1
-85.6671516895 97.3338077068 -11.7711545973 0.737118842 1
-82.1115996838 97.3338077068 -12.584832215 -0.097398304 1
-78.556047678 97.3338077068 -12.2346221753 -1.7929411826 1
-75.0004956722 97.3338077068 -12.460995967 -0.6057415104 1
-71.4449436665 97.3338077068 -11.5662737768 0.654113941 1
-67.8893916607 97.3338077068 0 -0 0
-64.3338396549 97.3338077068 0 -0 0
-60.7782876492 97.3338077068 -10.8274948368 2.3412150446 1
-57.2227356434 97.3338077068 -10.1330793672 1.7389350151 1
-53.6671836376 97.3338077068 -10.4150487819 1.1626690748 1
-50.1116316319 97.3338077068 -9.5750745052 0.8697324168 1
-46.5560796261 97.3338077068 -11.9379944483 -2.04036643 1
-43.0005276203 97.3338077068 -11.0001097096 0.9487636789 1
-39.4449756145 97.3338077068 -7.919886137 4.4945917642 1
-35.8894236088 97.3338077068 -9.9479607774 3.1154388434 1
-32.333871603 97.3338077068 -11.4634006814 2.133614489 1
-28.7783195972 97.3338077068 -6.7115290453 -1.2581070504 1
-25.2227675915 97.3338077068 -8.3574985713 1.5104242887 1
-21.6672155857 97.3338077068 -9.7556013345 4.0082713475 1
-18.1116635799 97.3338077068 -9.9800501189 3.3071625041 1
-14.5561115742 97.3338077068 -8.206500294 4.6560981088 1
-11.0005595684 97.3338077068 -8.7618560635 -0.7111224135 1
-7.4450075626 97.3338077068 -9.90654663 1.0656946256 1
-3.8894555569 97.3338077068 -9.1905322255 0.6704676726 1
-0.3339035511 97.3338077068 -13.5829043373 3.5920459206 1
3.2216484547 97.3338077068 -9.3099003374 3.0243983616 1
6.7772004604 97.3338077068 -11.4232051166 3.7560600728 1
10.3327524662 97.3338077068 -8.5930029021 3.3571773721 1
13.888304472 97.3338077068 -6.4904357782 -0.585643728 1
17.4438564777 97.3338077068 0 -0 0
20.9994084835 97.3338077068 0 -0 0
24.5549604893 97.3338077068 0 -0 0
28.110512495 97.3338077068 0 -0 0
31.6660645008 97.3338077068 0 -0 0
35.2216165066 97.3338077068 -6.7454727517 -1.7166296555 1
38.7771685123 97.3338077068 -9.3140505825 -1.7255659279 1
42.3327205181 97.3338077068 -6.7241210654 -2.3478907579 1
45.8882725239 97.3338077068 -7.8796375903 0.6116931384 1
49.4438245296 97.3338077068 -6.2030268934 2.2977522656 1
52.9993765354 97.3338077068 0 -0 0
-124.778223753 93.7782557011 -14.7980431059 -1.1206544664 1
-121.2226717472 93.7782557011 -11.6111317446 1.1454146518 1
-117.6671197414 93.7782557011 -9.1182826405 1.3252703777 1
-114.1115677357 93.7782557011 -10.2466724572 2.5556679196 1
-110.5560157299 93.7782557011 -10.6054125751 2.5023328556 1
-107.0004637241 93.7782557011 -8.6599543021 0.1615769871 1
-103.4449117184 93.7782557011 -6.105275377 2.92564019 1
-99.8893597126 93.7782557011 -6.2924602591 -0.2744106705 1
-96.3338077068 93.7782557011 -6.7378786863 -3.5668442198 1
-92.7782557011 93.7782557011 -8.8334698664 -2.8469621402 1
-89.2227036953 93.7782557011 -9.5365037171 -1.4278785638 1
-85.6671516895 93.7782557011 -10.1411502693 -1.6891320745 1
-82.1115996838 93.7782557011 -12.5277354395 -2.6973767123 1
-78.556047678 93.7782557011 -13.6341907697 -1.8422849471 1
-75.0004956722 93.7782557011 -13.2735609658 -1.5454452927 1
-71.4449436665 93.7782557011 -12.1031742013 -0.6533368739 1
-67.8893916607 93.7782557011 0 -0 0
-64.3338396549 93.7782557011 -8.607449287 0.1072882497 1
-60.7782876492 93.7782557011 -11.4926643242 1.4626699797 1
-57.2227356434 93.7782557011 -11.5171419397 3.0558519208 1
-53.6671836376 93.7782557011 -10.1750939756 0.0779892857 1
-50.1116316319 93.7782557011 -11.5896387734 -1.4752443392 1
-46.5560796261 93.7782557011 -10.2834595229 4.4735226479 1
-43.0005276203 93.7782557011 -8.7335814153 3.153426831 1
-39.4449756145 93.7782557011 -12.4031927668 -0.2495445215 1
-35.8894236088 93.7782557011 -9.8562845133 2.6953987231 1
-32.333871603 93.7782557011 -9.0803476346 -2.2271980997 1
-28.7783195972 93.7782557011 -10.6414932161 -3.5679921599 1
-25.2227675915 93.7782557011 -8.9233094262 6.1723680619 1
-21.6672155857 93.7782557011 -8.9100816239 4.9487345364 1
-18.1116635799 93.7782557011 -9.4484832008 4.5838485237 1
-14.5561115742 93.7782557011 -13.1311987303 3.2107178733 1
-11.0005595684 93.7782557011 -11.4447157484 1.7789186525 1
-7.4450075626 93.7782557011 -13.2820910439 -0.5826414231 1
-3.8894555569 93.7782557011 -10.337483351 2.2272687422 1
-0.3339035511 93.7782557011 -6.7215955972 -0.0013951888 1
3.2216484547 93.7782557011 -8.658894665 1.6043257906 1
6.7772004604 93.7782557011 -9.0990678889 2.5971173882 1
10.3327524662 93.7782557011 -8.9470276352 3.7135862884 1
13.888304472 93.7782557011 -7.1118245955 -0.4842541245 1
17.4438564777 93.7782557011 0 -0 0
20.9994084835 93.7782557011 0 -0 0
24.5549604893 93.7782557011 0 -0 0
28.110512495 93.7782557011 0 -0 0
31.6660645008 93.7782557011 0 -0 0
35.2216165066 93.7782557011 -5.6311231256 -1.212860549 1
38.7771685123 93.7782557011 -6.2037509787 1.7855943658 1
42.3327205181 93.7782557011 -5.7405659706 5.8938601281 1
45.8882725239 93.7782557011 -7.7116674598 -0.2831350155 1
49.4438245296 93.7782557011 -8.7931330166 1.5870007251 1
52.9993765354 93.7782557011 0 -0 0
-124.778223753 90.2227036953 -11.7009713044 -3.4695518795 1
-121.2226717472 90.2227036953 -10.1802508758 -1.7435974181 1
-117.6671197414 90.2227036953 -10.6047414716 5.0868405631 1
-114.1115677357 90.2227036953 -11.4077873978 -0.4294532292 1
-110.5560157299 90.2227036953 -9.4899150089 0.4621960136 1
-107.0004637241 90.2227036953 -6.3373888693 0.6322677575 1
-103.4449117184 90.2227036953 -6.8732119961 -1.9161946303 1
-99.8893597126 90.2227036953 -6.6526485475 -1.3572184343 1
-96.3338077068 90.2227036953 -7.6864480984 -2.1792848452 1
-92.7782557011 90.2227036953 -7.5076696702 -4.2813221506 1
-89.2227036953 90.2227036953 -9.5772291005 -6.6255748213 1
-85.6671516895 90.2227036953 -10.4380782268 -3.9650028353 1
-82.1115996838 90.2227036953 -11.8395718285 -2.4971582947 1
-78.556047678 90.2227036953 -15.1756800841 0.3723034719 1
-75.0004956722 90.2227036953 -11.9333143847 0.7718749367 1
-71.4449436665 90.2227036953 -14.4009441274 1.7531871332 1
-67.8893916607 90.2227036953 0 -0 0
-64.3338396549 90.2227036953 -11.1176587779 -2.0997237645 1
-60.7782876492 90.2227036953 -10.5521481535 0.3248493934 1
-57.2227356434 90.2227036953 -10.8975898265 2.8125945791 1
-53.6671836376 90.2227036953 -12.24820319 0.5631264411 1
-50.1116316319 90.2227036953 -10.8698273363 2.0905932254 1
-46.5560796261 90.2227036953 -12.8354363735 1.7647901587 1
-43.0005276203 90.2227036953 -11.2642242403 0.943129942 1
-39.4449756145 90.2227036953 -9.6303875583 -0.8450252133 1
-35.8894236088 90.2227036953 -13.749249691 6.6114463275 1
-32.333871603 90.2227036953 -11.4165294033 3.5957723109 1
-28.7783195972 90.2227036953 -9.2890608091 2.9904369946 1
-25.2227675915 90.2227036953 -11.1708702176 3.2282901875 1
-21.6672155857 90.2227036953 -10.8508068515 3.3166285949 1
-18.1116635799 90.2227036953 -10.1058820167 4.4634560961 1