TITLE = "B00018"
VARIABLES = "x", "y", "Vx", "Vy", "isValid"
ZONE T="Frame 0", I=51, J=39, F=POINT
-124.778223753 125.778223753 -10.2754239421 0.3430751503 1
-121.2226717472 125.778223753 -11.5030311065 -0.5465784427 1
-117.6671197414 125.778223753 -10.4546438858 -0.6892055875 1
-114.1115677357 125.778223753 -9.7983753494 1.0968126332 1
-110.5560157299 125.778223753 -10.3159197374 -2.8088858495 1
-107.0004637241 125.778223753 -11.3732608911 -1.9735386544 1
-103.4449117184 125.778223753 -8.0710256992 2.0592986117 1
-99.8893597126 125.778223753 -9.2349133566 1.2426540103 1
-96.3338077068 125.778223753 -9.2637178234 1.9796845492 1
-92.7782557011 125.778223753 -9.6791308619 0.717232987 1
-89.2227036953 125.778223753 -10.5137009898 -3.705762635 1
-85.6671516895 125.778223753 -9.2637708052 1.4729307984 1
-82.1115996838 125.778223753 -10.2010904042 0.8756487236 1
-78.556047678 125.778223753 -11.5394826205 2.2069060505 1
-75.0004956722 125.778223753 -9.3598798842 1.6637361069 1
-71.4449436665 125.778223753 -9.8951378712 2.2499802959 1
-67.8893916607 125.778223753 0 -0 0
-64.3338396549 125.778223753 0 -0 0
-60.7782876492 125.778223753 0 -0 0
-57.2227356434 125.778223753 -8.6626740371 -0.9073848527 1
-53.6671836376 125.778223753 -12.5280533306 1.3786937448 1
-50.1116316319 125.778223753 -10.1597645598 1.0725116239 1
-46.5560796261 125.778223753 -8.2191099747 0.4977644967 1
-43.0005276203 125.778223753 -10.5937742283 -1.274549085 1
-39.4449756145 125.778223753 -9.0803829559 0.747962461 1
-35.8894236088 125.778223753 -10.6149846296 -0.5701906879 1
-32.333871603 125.778223753 -10.3866151882 0.128127778 1
-28.7783195972 125.778223753 -7.0719469218 3.1693213866 1
-25.2227675915 125.778223753 -11.146304299 1.3813428374 1
-21.6672155857 125.778223753 -9.0824845693 -2.7652641249 1
-18.1116635799 125.778223753 -7.635249969 -1.2713878345 1
-14.5561115742 125.778223753 -9.4674507037 1.2821961323 1
-11.0005595684 125.778223753 -12.9330819262 -1.0448727579 1
-7.4450075626 125.778223753 -7.8451993867 0.463838451 1
-3.8894555569 125.778223753 -9.8413612918 1.7403478645 1
-0.3339035511 125.778223753 -10.9850805243 7.9264029047 1
3.2216484547 125.778223753 -8.795976376 1.41088905 1
6.7772004604 125.778223753 -11.4836220881 2.0979400422 1
10.3327524662 125.778223753 -7.8430977732 -0.4294885505 1
13.888304472 125.778223753 0 -0 0
17.4438564777 125.778223753 0 -0 0
20.9994084835 125.778223753 0 -0 0
24.5549604893 125.778223753 0 -0 0
28.110512495 125.778223753 0 -0 0
31.6660645008 125.778223753 0 -0 0
35.2216165066 125.778223753 0 -0 0
38.7771685123 125.778223753 -8.949941637 3.0394452074 1
42.3327205181 125.778223753 -11.7505269964 -0.9439070092 1
45.8882725239 125.778223753 -7.0702691632 0.4520411587 1
49.4438245296 125.778223753 -7.2292853607 1.6820854882 1
52.9993765354 125.778223753 0 -0 0
-124.778223753 122.2226717472 -10.4292302576 1.8245360268 1
-121.2226717472 122.2226717472 -10.0193449922 -0.0792431895 1
-117.6671197414 122.2226717472 -10.7120297213 0.475370834 1
-114.1115677357 122.2226717472 -10.3719745365 2.0695241091 1
-110.5560157299 122.2226717472 -10.4226428473 0.867418876 1
-107.0004637241 122.2226717472 -11.4653963312 -1.0122359373 1
-103.4449117184 122.2226717472 -8.5889586208 1.4840746478 1
-99.8893597126 122.2226717472 -9.5808318664 3.9981694745 1
-96.3338077068 122.2226717472 -9.8706425951 0.3868028386 1
-92.7782557011 122.2226717472 -10.4596595011 0.0463414596 1
-89.2227036953 122.2226717472 -11.2228807353 0.7624088459 1
-85.6671516895 122.2226717472 -7.7779654169 -0.968879122 1
-82.1115996838 122.2226717472 -10.7374080283 0.9356241797 1
-78.556047678 122.2226717472 -11.883334838 0.5849549639 1
-75.0004956722 122.2226717472 -9.5502260167 -1.265966025 1
-71.4449436665 122.2226717472 -11.9411556988 -1.0490406636 1
-67.8893916607 122.2226717472 0 -0 0
-64.3338396549 122.2226717472 0 -0 0
-60.7782876492 122.2226717472 0 -0 0
-57.2227356434 122.2226717472 -11.0515727482 1.4612041485 1
-53.6671836376 122.2226717472 -11.0494358135 -0.8927971829 1
-50.1116316319 122.2226717472 -9.1122780306 3.9049214155 1
-46.5560796261 122.2226717472 -12.4301781899 3.0551101749 1
-43.0005276203 122.2226717472 -10.5173567375 0.627817282 1
-39.4449756145 122.2226717472 -9.427113854 0.3063587271 1
-35.8894236088 122.2226717472 -10.5085970714 2.1017723961 1
-32.333871603 122.2226717472 -9.5620586303 -0.0673399335 1
-28.7783195972 122.2226717472 -8.7880290982 -3.2607150807 1
-25.2227675915 122.2226717472 -10.2337978673 1.7677218212 1
-21.6672155857 122.2226717472 -10.7267586761 1.5387519188 1
-18.1116635799 122.2226717472 -10.1061469259 1.7535933274 1
-14.5561115742 122.2226717472 -8.0530825121 -0.324037005 1
-11.0005595684 122.2226717472 -10.0897402125 2.9513540487 1
-7.4450075626 122.2226717472 -12.5180221 -0.0505270259 1
-3.8894555569 122.2226717472 -8.2840657249 0.0320010384 1
-0.3339035511 122.2226717472 -12.5397976411 -4.465257479 1
3.2216484547 122.2226717472 -9.9565085161 -0.3727979691 1
6.7772004604 122.2226717472 -11.3399176457 1.8838933613 1
10.3327524662 122.2226717472 -7.5042964923 0.673169747 1
13.888304472 122.2226717472 0 -0 0
17.4438564777 122.2226717472 0 -0 0
20.9994084835 122.2226717472 0 -0 0
24.5549604893 122.2226717472 0 -0 0
28.110512495 122.2226717472 0 -0 0
31.6660645008 122.2226717472 0 -0 0
35.2216165066 122.2226717472 0 -0 0
38.7771685123 122.2226717472 -8.5477740614 0.3688419909 1
42.3327205181 122.2226717472 -8.5988838877 0.6404093021 1
45.8882725239 122.2226717472 -11.2327353598 -0.6259629172 1
49.4438245296 122.2226717472 -5.2870766413 1.2017520208 1
52.9993765354 122.2226717472 0 -0 0
-124.778223753 118.6671197414 -11.2204259095 -0.5068420539 1
-121.2226717472 118.6671197414 -11.3340189996 0.2677172966 1
-117.6671197414 118.6671197414 -10.4533899819 -1.6487245823 1
-114.1115677357 118.6671197414 -9.9691711787 0.103491217 1
-110.5560157299 118.6671197414 -10.6768144505 -1.9397892149 1
-107.0004637241 118.6671197414 -10.6832605758 0.9190408601 1
-103.4449117184 118.6671197414 -8.9014455821 2.0483313684 1
-99.8893597126 118.6671197414 -10.3763013877 1.0997089744 1
-96.3338077068 118.6671197414 -9.0187650624 2.7590829089 1
-92.7782557011 118.6671197414 -11.4875250846 -2.0233769162 1
-89.2227036953 118.6671197414 -9.6321889413 -4.0084832749 1
-85.6671516895 118.6671197414 -9.8549423064 0.4446590207 1
-82.1115996838 118.6671197414 -9.0583248449 1.4308985294 1
-78.556047678 118.6671197414 -11.1834269164 0.7681485465 1
-75.0004956722 118.6671197414 -10.5999024625 -2.3750881084 1
-71.4449436665 118.6671197414 -8.5806934519 -1.207138509 1
-67.8893916607 118.6671197414 0 -0 0
-64.3338396549 118.6671197414 0 -0 0
-60.7782876492 118.6671197414 -9.1855519315 -1.8747451616 1
-57.2227356434 118.6671197414 -9.4740204534 2.1917885622 1
-53.6671836376 118.6671197414 -9.1418419038 3.1444022556 1
-50.1116316319 118.6671197414 -10.9545629777 2.4781201493 1
-46.5560796261 118.6671197414 -11.4583144237 -0.4485443565 1
-43.0005276203 118.6671197414 -8.9671430782 -0.7576581399 1
-39.4449756145 118.6671197414 -8.6825775527 -0.9390856607 1
-35.8894236088 118.6671197414 -9.7727321332 2.4533952852 1
-32.333871603 118.6671197414 -10.2337802067 3.0801529302 1
-28.7783195972 118.6671197414 -10.3410154745 -1.2896135915 1
-25.2227675915 118.6671197414 -11.2738139554 5.8413727737 1
-21.6672155857 118.6671197414 -10.572563827 2.3054169734 1
-18.1116635799 118.6671197414 -9.9506451912 -1.8675926116 1
-14.5561115742 118.6671197414 -8.6382847247 1.2419652462 1
-11.0005595684 118.6671197414 -7.9797203081 -0.2179849985 1
-7.4450075626 118.6671197414 -8.0883331041 3.6185191858 1
-3.8894555569 118.6671197414 -10.3870213824 6.0853012189 1
-0.3339035511 118.6671197414 -9.3025535206 4.3529889353 1
3.2216484547 118.6671197414 -10.2621961398 1.5509024234 1
6.7772004604 118.6671197414 -11.9130753174 1.2331879194 1
10.3327524662 118.6671197414 -7.5721485837 1.4829267077 1
13.888304472 118.6671197414 0 -0 0
17.4438564777 118.6671197414 0 -0 0
20.9994084835 118.6671197414 0 -0 0
24.5549604893 118.6671197414 0 -0 0
28.110512495 118.6671197414 0 -0 0
31.6660645008 118.6671197414 0 -0 0
35.2216165066 118.6671197414 0 -0 0
38.7771685123 118.6671197414 -8.0430689421 2.7169093549 1
42.3327205181 118.6671197414 -9.9937370972 3.0923564167 1
45.8882725239 118.6671197414 -7.8967154071 2.7938919854 1
49.4438245296 118.6671197414 -11.5363390306 4.481452265 1
52.9993765354 118.6671197414 0 -0 0
-124.778223753 115.1115677357 -11.4157523361 -1.228454874 1
-121.2226717472 115.1115677357 -10.514336772 -0.448703302 1
-117.6671197414 115.1115677357 -9.6887912195 -0.0079649384 1
-114.1115677357 115.1115677357 -11.1439377763 1.4529036584 1
-110.5560157299 115.1115677357 -10.2043222971 0.6872099377 1
-107.0004637241 115.1115677357 -12.1794150858 0.4093377862 1
-103.4449117184 115.1115677357 -10.5868865876 -0.5698374756 1
-99.8893597126 115.1115677357 -10.8191943467 1.3232394067 1
-96.3338077068 115.1115677357 -9.7260374612 -0.7011618253 1
-92.7782557011 115.1115677357 -11.0653127084 0.4977644967 1
-89.2227036953 115.1115677357 -10.663780915 -0.5748177697 1
-85.6671516895 115.1115677357 -10.6045295442 0.5662523703 1
-82.1115996838 115.1115677357 -10.4854263416 -0.8461378322 1
-78.556047678 115.1115677357 -9.6389882789 -1.6141450937 1
-75.0004956722 115.1115677357 -10.9755791122 -1.2582130141 1
-71.4449436665 115.1115677357 -12.2491392027 0.9778153943 1
-67.8893916607 115.1115677357 0 -0 0
-64.3338396549 115.1115677357 0 -0 0
-60.7782876492 115.1115677357 -9.0742547217 1.2728713264 1
-57.2227356434 115.1115677357 -9.9476782075 -3.2005453578 1
-53.6671836376 115.1115677357 -10.3935028289 2.3564561572 1
-50.1116316319 115.1115677357 -9.61097854 3.1725532795 1
-46.5560796261 115.1115677357 -12.0202222821 0.1854364809 1
-43.0005276203 115.1115677357 -10.7823719597 -0.7141247184 1
-39.4449756145 115.1115677357 -10.125061447 1.6989513777 1
-35.8894236088 115.1115677357 -12.9169754433 0.5157959869 1
-32.333871603 115.1115677357 -13.7164009429 -1.5666027122 1
-28.7783195972 115.1115677357 -10.526610901 2.0047979469 1
-25.2227675915 115.1115677357 -9.6361449195 0.7982775595 1
-21.6672155857 115.1115677357 -10.2035099087 0.9224846805 1
-18.1116635799 115.1115677357 -7.2639531524 1.9297403237 1
-14.5561115742 115.1115677357 -10.5043761839 -1.053773709 1
-11.0005595684 115.1115677357 -10.2715386063 6.0478253892 1
-7.4450075626 115.1115677357 -10.1504750752 3.1669372032 1
-3.8894555569 115.1115677357 -9.4667972609 -3.0507656631 1
-0.3339035511 115.1115677357 -8.4080079366 0.9072435678 1
3.2216484547 115.1115677357 -10.6102692448 1.5843163112 1
6.7772004604 115.1115677357 -10.046118488 2.6050293448 1
10.3327524662 115.1115677357 -11.2055380092 2.6337984902 1
13.888304472 115.1115677357 0 -0 0
17.4438564777 115.1115677357 0 -0 0
20.9994084835 115.1115677357 0 -0 0
24.5549604893 115.1115677357 0 -0 0
28.110512495 115.1115677357 0 -0 0
31.6660645008 115.1115677357 0 -0 0
35.2216165066 115.1115677357 -10.3320262203 -1.5700112113 1
38.7771685123 115.1115677357 -6.2708789848 1.148540581 1
42.3327205181 115.1115677357 -8.5353233262 -0.538260292 1
45.8882725239 115.1115677357 -8.0893397593 0.6425638974 1
49.4438245296 115.1115677357 -8.9680437697 -3.8057570497 1
52.9993765354 115.1115677357 0 -0 0
-124.778223753 111.5560157299 -10.7908843772 -1.9149760477 1
-121.2226717472 111.5560157299 -11.1892549201 -1.0864281902 1
-117.6671197414 111.5560157299 -9.8064285909 2.1573856798 1
-114.1115677357 111.5560157299 -10.1810632642 0.0155766644 1
-110.5560157299 111.5560157299 -10.2585757133 0.6983537872 1
-107.0004637241 111.5560157299 -11.3456220251 0.6229076304 1
-103.4449117184 111.5560157299 -10.048379047 0.8464733839 1
-99.8893597126 111.5560157299 -9.4285090427 1.5050907823 1
-96.3338077068 111.5560157299 -10.3123522927 2.0336907167 1
-92.7782557011 111.5560157299 -11.259667801 1.2027763366 1
-89.2227036953 111.5560157299 -10.7928976876 -0.4973583025 1
-85.6671516895 111.5560157299 -10.1126990149 1.6873483522 1
-82.1115996838 111.5560157299 -9.8237006745 1.6762221633 1
-78.556047678 111.5560157299 -9.7837170371 0.7245268219 1
-75.0004956722 111.5560157299 -10.5783741701 1.4634293863 1
-71.4449436665 111.5560157299 -10.5804051411 0.3319489615 1
-67.8893916607 111.5560157299 0 -0 0
-64.3338396549 111.5560157299 0 -0 0
-60.7782876492 111.5560157299 -13.3306224201 3.2991269232 1
-57.2227356434 111.5560157299 -11.0994506815 0.7546734955 1
-53.6671836376 111.5560157299 -7.2344775822 -0.6897707272 1
-50.1116316319 111.5560157299 -9.1845805975 3.303241847 1
-46.5560796261 111.5560157299 -9.8101019993 2.1740396418 1
-43.0005276203 111.5560157299 -11.4664736288 0.7851203997 1
-39.4449756145 111.5560157299 -10.5603603405 -2.5526656147 1
-35.8894236088 111.5560157299 -10.7262288575 1.5663024817 1
-32.333871603 111.5560157299 -14.1252795531 1.5925991407 1
-28.7783195972 111.5560157299 -7.5009939568 -1.7241000966 1
-25.2227675915 111.5560157299 -10.7216547577 -1.5732784255 1
-21.6672155857 111.5560157299 -12.702716835 -0.2309832128 1
-18.1116635799 111.5560157299 -12.4270699213 -0.2477078173 1
-14.5561115742 111.5560157299 -10.7999089526 0.0770885942 1
-11.0005595684 111.5560157299 -9.928092583 1.8617822686 1
-7.4450075626 111.5560157299 -12.4760251523 -0.1460179833 1
-3.8894555569 111.5560157299 -13.0305508727 1.9074173035 1
-0.3339035511 111.5560157299 -8.866936736 3.6494076054 1
3.2216484547 111.5560157299 -8.5713509854 0.84550205 1
6.7772004604 111.5560157299 -12.61330113 5.1108943238 1
10.3327524662 111.5560157299 -7.5502140971 1.5572249244 1
13.888304472 111.5560157299 0 -0 0
17.4438564777 111.5560157299 0 -0 0
20.9994084835 111.5560157299 0 -0 0
24.5549604893 111.5560157299 0 -0 0
28.110512495 111.5560157299 0 -0 0
31.6660645008 111.5560157299 0 -0 0
35.2216165066 111.5560157299 -7.5081818281 2.1140641857 1
38.7771685123 111.5560157299 -6.5144542177 -1.2664958435 1
42.3327205181 111.5560157299 -8.97005708 -2.5539195185 1
45.8882725239 111.5560157299 -7.7109257139 1.0199712876 1
49.4438245296 111.5560157299 -7.5580730717 2.5660523625 1
52.9993765354 111.5560157299 0 -0 0
-124.778223753 108.0004637241 -9.4854821939 0.4623196379 1
-121.2226717472 108.0004637241 -9.7246069513 -1.3215969693 1
-117.6671197414 108.0004637241 -9.9607470643 -0.4623902804 1
-114.1115677357 108.0004637241 -11.6414020425 0.2865435146 1
-110.5560157299 108.0004637241 -10.3625261063 -0.2840533676 1
-107.0004637241 108.0004637241 -9.4310874929 -0.3411324824 1
-103.4449117184 108.0004637241 -10.5246152512 -0.1095488087 1
-99.8893597126 108.0004637241 -10.5339577177 -0.3155069268 1
-96.3338077068 108.0004637241 -10.3465079264 -1.2246931626 1
-92.7782557011 108.0004637241 -11.4391703146 -0.8452548013 1
-89.2227036953 108.0004637241 -10.4882520404 0.3211583244 1
-85.6671516895 108.0004637241 -11.3522094353 0.8483807306 1
-82.1115996838 108.0004637241 -11.1187007543 -0.030959062 1
-78.556047678 108.0004637241 -11.6469827975 -0.1097430755 1
-75.0004956722 108.0004637241 -10.3169440532 0.9802348988 1
-71.4449436665 108.0004637241 -10.1560028484 -3.2024527045 1
-67.8893916607 108.0004637241 0 -0 0
-64.3338396549 108.0004637241 0 -0 0
-60.7782876492 108.0004637241 -12.6245686038 -0.5480089527 1
-57.2227356434 108.0004637241 -11.6167654815 2.5102624727 1
-53.6671836376 108.0004637241 -12.8220849469 -0.6257509898 1
-50.1116316319 108.0004637241 -10.5263989736 0.6220245995 1
-46.5560796261 108.0004637241 -11.3929348187 1.8288981993 1
-43.0005276203 108.0004637241 -10.9154093893 4.1570443871 1
-39.4449756145 108.0004637241 -10.9612740123 1.7081878805 1
-35.8894236088 108.0004637241 -8.6680958466 3.9806501422 1
-32.333871603 108.0004637241 -11.394488953 2.8519247737 1
-28.7783195972 108.0004637241 -10.4051058544 1.5385753126 1
-25.2227675915 108.0004637241 -12.8531499726 -0.0037440509 1
-21.6672155857 108.0004637241 -9.2306394873 3.5348961633 1
-18.1116635799 108.0004637241 -10.8999563493 5.2827321294 1
-14.5561115742 108.0004637241 -8.6826835164 -0.8420052478 1
-11.0005595684 108.0004637241 -8.4190105012 -0.0682229644 1
-7.4450075626 108.0004637241 -10.4276231414 3.3447442975 1
-3.8894555569 108.0004637241 -7.8105139344 -2.2777957681 1
-0.3339035511 108.0004637241 -10.1021909477 3.7355914175 1
3.2216484547 108.0004637241 -11.9577213577 4.385714059 1
6.7772004604 108.0004637241 -11.9689358497 3.1315276657 1
10.3327524662 108.0004637241 -8.291306578 2.8798638701 1
13.888304472 108.0004637241 0 -0 0
17.4438564777 108.0004637241 0 -0 0
20.9994084835 108.0004637241 0 -0 0
24.5549604893 108.0004637241 0 -0 0
28.110512495 108.0004637241 0 -0 0
31.6660645008 108.0004637241 0 -0 0
35.2216165066 108.0004637241 -7.3609276016 2.9945519184 1
38.7771685123 108.0004637241 -9.0988912827 0.4576042531 1
42.3327205181 108.0004637241 -8.5268285694 3.0543331078 1
45.8882725239 108.0004637241 -9.4525098216 2.2159836078 1
49.4438245296 108.0004637241 -8.9918856029 2.8242329258 1
52.9993765354 108.0004637241 0 -0 0
-124.778223753 104.4449117184 -10.961379976 1.206078872 1
-121.2226717472 104.4449117184 -10.797630733 -0.8734764677 1
-117.6671197414 104.4449117184 -11.2171586954 0.1955913358 1
-114.1115677357 104.4449117184 -12.7927153405 -0.158027203 1
-110.5560157299 104.4449117184 -10.9409289812 1.3303036536 1
-107.0004637241 104.4449117184 -11.2077985682 1.8410840252 1
-103.4449117184 104.4449117184 -9.9349978843 1.9394183419 1
-99.8893597126 104.4449117184 -12.1040572321 -1.3644769479 1
-96.3338077068 104.4449117184 -10.841093512 0.0201684249 1
-92.7782557011 104.4449117184 -11.1309748833 -1.4749617693 1
-89.2227036953 104.4449117184 -9.3286382523 1.6595858619 1
-85.6671516895 104.4449117184 -10.9068086687 1.204277489 1
-82.1115996838 104.4449117184 -12.6553510596 -0.7591946136 1
-78.556047678 104.4449117184 -11.2157105247 2.6739763944 1
-75.0004956722 104.4449117184 -12.6874227405 -0.1027141498 1
-71.4449436665 104.4449117184 -10.7540443297 1.0632044786 1
-67.8893916607 104.4449117184 0 -0 0
-64.3338396549 104.4449117184 0 -0 0
-60.7782876492 104.4449117184 -9.6307054494 2.9636634989 1
-57.2227356434 104.4449117184 -10.5855973625 0.5433288891 1
-53.6671836376 104.4449117184 -11.990375839 -1.3849985852 1
-50.1116316319 104.4449117184 -9.7320420711 2.7888940308 1
-46.5560796261 104.4449117184 -10.8496235901 4.5194225921 1
-43.0005276203 104.4449117184 -9.5293335065 -1.3461628879 1
-39.4449756145 104.4449117184 -11.7400895716 2.3255324165 1
-35.8894236088 104.4449117184 -10.7778155205 4.1082657623 1
-32.333871603 104.4449117184 -11.8518282968 4.5037752852 1
-28.7783195972 104.4449117184 -9.7077587224 -2.0685880964 1
-25.2227675915 104.4449117184 -6.9238273251 1.3395048352 1
-21.6672155857 104.4449117184 -9.0425362531 2.0069525422 1
-18.1116635799 104.4449117184 -9.7068933522 2.3634497617 1
-14.5561115742 104.4449117184 -7.4221569615 0.2928130337 1
-11.0005595684 104.4449117184 -9.154522227 -0.6466964818 1
-7.4450075626 104.4449117184 -8.9210312066 0.7304431287 1
-3.8894555569 104.4449117184 -9.53429614 1.9602048884 1
-0.3339035511 104.4449117184 -10.6172805098 1.4462279451 1
3.2216484547 104.4449117184 -7.0008452768 0.626386772 1
6.7772004604 104.4449117184 -10.4694258224 -0.7020271956 1
10.3327524662 104.4449117184 -9.9049571744 -1.2389099594 1
13.888304472 104.4449117184 -3.9541415557 -4.8066372101 1
17.4438564777 104.4449117184 0 -0 0
20.9994084835 104.4449117184 0 -0 0
24.5549604893 104.4449117184 0 -0 0
28.110512495 104.4449117184 0 -0 0
31.6660645008 104.4449117184 0 -0 0
35.2216165066 104.4449117184 -9.0945644315 0.7892883053 1
38.7771685123 104.4449117184 -7.7049387646 -0.8768319849 1
42.3327205181 104.4449117184 -7.0434780068 3.4774814966 1
45.8882725239 104.4449117184 -9.1735603724 2.1002006012 1
49.4438245296 104.4449117184 -6.9518900459 2.9513893699 1
52.9993765354 104.4449117184 0 -0 0
-124.778223753 100.8893597126 -12.4521126765 0.0208925102 1
-121.2226717472 100.8893597126 -10.5943746893 -2.6385845175 1
-117.6671197414 100.8893597126 -10.3640979012 0.2384183326 1
-114.1115677357 100.8893597126 -10.2437584554 -0.7525189002 1
-110.5560157299 100.8893597126 -10.5738707127 1.2293908867 1
-107.0004637241 100.8893597126 -9.6910341179 1.3584193562 1
-103.4449117184 100.8893597126 -10.4339279817 0.7294188129 1
-99.8893597126 100.8893597126 -8.1962924573 0.2874618667 1
-96.3338077068 100.8893597126 -8.3458778852 -1.3792942058 1
-92.7782557011 100.8893597126 -8.9449966642 -1.2788229544 1
-89.2227036953 100.8893597126 -10.8939164182 1.6582259944 1
-85.6671516895 100.8893597126 -9.0354896669 1.1118418184 1
-82.1115996838 100.8893597126 -10.2008608161 3.2439904762 1
-78.556047678 100.8893597126 -11.8594576835 -1.9571849229 1
-75.0004956722 100.8893597126 -11.3636535153 -0.7786212925 1
-71.4449436665 100.8893597126 -10.6681784087 0.0113557769 1
-67.8893916607 100.8893597126 0 -0 0
-64.3338396549 100.8893597126 0 -0 0
-60.7782876492 100.8893597126 -11.5260252301 4.2488972573 1
-57.2227356434 100.8893597126 -12.1201460544 2.4127758656 1
-53.6671836376 100.8893597126 -11.1590199434 3.1831849711 1
-50.1116316319 100.8893597126 -12.389064273 0.3473843409 1
-46.5560796261 100.8893597126 -12.2727337873 2.5411685529 1
-43.0005276203 100.8893597126 -10.7743540395 -1.6578374608 1
-39.4449756145 100.8893597126 -11.2357553253 2.1070882419 1
-35.8894236088 100.8893597126 -9.8413083099 -1.2274835401 1
-32.333871603 100.8893597126 -10.4845962926 1.6314701593 1
-28.7783195972 100.8893597126 -11.4667738593 1.8835754702 1
-25.2227675915 100.8893597126 -9.3185893611 0.494797513 1
-21.6672155857 100.8893597126 -9.8799497404 3.1946643723 1
-18.1116635799 100.8893597126 -8.5100333224 -1.0751607165 1
-14.5561115742 100.8893597126 -12.8305443826 4.6835250474 1
-11.0005595684 100.8893597126 -6.6405333641 0.1574797239 1
-7.4450075626 100.8893597126 -8.4542434325 2.3782493589 1
-3.8894555569 100.8893597126 -10.1930371627 4.4030921064 1
-0.3339035511 100.8893597126 -7.9045920424 0.0993409719 1
3.2216484547 100.8893597126 -9.0965954025 4.2200927906 1
6.7772004604 100.8893597126 -7.6654319639 4.6167679143 1
10.3327524662 100.8893597126 -7.6578908803 -3.4677504965 1
13.888304472 100.8893597126 -4.1422977717 -9.3281260944 1
17.4438564777 100.8893597126 0 -0 0
20.9994084835 100.8893597126 0 -0 0
24.5549604893 100.8893597126 0 -0 0
28.110512495 100.8893597126 0 -0 0
31.6660645008 100.8893597126 0 -0 0
35.2216165066 100.8893597126 -8.2192512597 -2.3565974422 1
38.7771685123 100.8893597126 -8.698895963 -2.9287484586 1
42.3327205181 100.8893597126 -7.9060048918 2.2753056211 1
45.8882725239 100.8893597126 -6.7831781695 -1.6682219037 1
49.4438245296 100.8893597126 -6.9068201507 -0.5114338144 1
52.9993765354 100.8893597126 0 -0 0
-124.778223753 97.3338077068 -10.5587002425 -3.2381801331 1
-121.2226717472 97.3338077068 -11.9903228571 -0.5121225785 1
-117.6671197414 97.3338077068 -11.0426011546 1.3534567228 1
-114.1115677357 97.3338077068 -10.2781789984 2.6958932204 1
-110.5560157299 97.3338077068 -11.1634350977 2.9419056185 1
-107.0004637241 97.3338077068 -10.8449611872 1.1863519625 1
-103.4449117184 97.3338077068 -8.7129008325 -2.3026619171 1
-99.8893597126 97.3338077068 -10.3911186456 0.8492284402 1
-96.3338077068 97.3338077068 -9.2289087468 3.1036238905 1
-92.7782557011 97.3338077068 -11.2304924614 1.6384284424 1
-89.2227036953 97.3338077068 -11.3841928131 0.3769835354 1
-85.6671516895 97.3338077068 -11.7160004897 -0.3829881453 1
-82.1115996838 97.3338077068 -11.7710839548 1.408999364 1
-78.556047678 97.3338077068 -11.2127965229 0.6275170515 1
-75.0004956722 97.3338077068 -12.9769862206 1.4672617402 1
-71.4449436665 97.3338077068 -12.7337818608 1.234547787 1
-67.8893916607 97.3338077068 0 -0 0
-64.3338396549 97.3338077068 0 -0 0
-60.7782876492 97.3338077068 -8.6934564929 -2.3235720879 1
-57.2227356434 97.3338077068 -10.6236206714 2.3018671894 1
-53.6671836376 97.3338077068 -9.3036661395 1.8884851218 1
-50.1116316319 97.3338077068 -10.6015448999 3.3028003316 1
-46.5560796261 97.3338077068 -9.1923865904 -0.3941319948 1
-43.0005276203 97.3338077068 -12.4108751353 3.5319291796 1
-39.4449756145 97.3338077068 -11.2726130335 3.8860598763 1
-35.8894236088 97.3338077068 -10.4588117914 0.4227951765 1
-32.333871603 97.3338077068 -10.7995380797 -0.2579686359 1
-28.7783195972 97.3338077068 -10.3010141765 4.0333847452 1
-25.2227675915 97.3338077068 -11.4300221149 -2.7526897654 1
-21.6672155857 97.3338077068 -8.9533324755 2.0774360656 1
-18.1116635799 97.3338077068 -8.8796347198 -0.5037337853 1
-14.5561115742 97.3338077068 -9.7908342659 5.1820842718 1
-11.0005595684 97.3338077068 -6.9168867025 5.4137209275 1
-7.4450075626 97.3338077068 -10.2907356972 6.8412286183 1
-3.8894555569 97.3338077068 -9.7631247574 3.2621279301 1
-0.3339035511 97.3338077068 -11.2257594159 0.9745481801 1
3.2216484547 97.3338077068 -8.9240864934 -2.736653925 1
6.7772004604 97.3338077068 -10.7979662847 -0.0526816212 1
10.3327524662 97.3338077068 -9.8256610031 -1.7412662166 1
13.888304472 97.3338077068 -9.7172071526 -5.3749911939 1
17.4438564777 97.3338077068 0 -0 0
20.9994084835 97.3338077068 0 -0 0
24.5549604893 97.3338077068 0 -0 0
28.110512495 97.3338077068 0 -0 0
31.6660645008 97.3338077068 0 -0 0
35.2216165066 97.3338077068 -4.4302541357 0.4237841711 1
38.7771685123 97.3338077068 -8.8768443423 1.2036063856 1
42.3327205181 97.3338077068 -6.1936137844 0.6735582806 1
45.8882725239 97.3338077068 -8.9143731539 0.5916659985 1
49.4438245296 97.3338077068 -7.1656718175 -0.2940139557 1
52.9993765354 97.3338077068 0 -0 0
-124.778223753 93.7782557011 -12.1020262611 0.9352003249 1
-121.2226717472 93.7782557011 -12.3599772364 0.4900291463 1
-117.6671197414 93.7782557011 -12.8373437202 0.7744710475 1
-114.1115677357 93.7782557011 -11.7732738714 4.3921955055 1
-110.5560157299 93.7782557011 -12.0887807982 0.598977494 1
-107.0004637241 93.7782557011 -8.9726708514 2.9840085299 1
-103.4449117184 93.7782557011 -9.8446638272 -0.2852189683 1
-99.8893597126 93.7782557011 -7.3965137453 -1.0021164036 1
-96.3338077068 93.7782557011 -10.3611662388 -0.4701786126 1
-92.7782557011 93.7782557011 -9.4124378811 -0.4084370947 1
-89.2227036953 93.7782557011 -8.8725528123 2.5866446422 1
-85.6671516895 93.7782557011 -10.1293176557 -1.4768514554 1
-82.1115996838 93.7782557011 -12.239991003 0.150645065 1
-78.556047678 93.7782557011 -10.7430417652 1.4956070309 1
-75.0004956722 93.7782557011 -11.2529920877 2.3655866963 1
-71.4449436665 93.7782557011 -12.2207409302 0.7399445408 1
-67.8893916607 93.7782557011 0 -0 0
-64.3338396549 93.7782557011 -11.7809915611 2.5295478667 1
-60.7782876492 93.7782557011 -10.938633101 -0.9579648605 1
-57.2227356434 93.7782557011 -11.951434178 -1.500216452 1
-53.6671836376 93.7782557011 -12.2295712388 1.6405653771 1
-50.1116316319 93.7782557011 -10.1969048379 -1.5323411147 1
-46.5560796261 93.7782557011 -9.6539821429 0.2858724111 1
-43.0005276203 93.7782557011 -10.1432165615 1.5319172599 1
-39.4449756145 93.7782557011 -9.3042666005 5.3828501685 1
-35.8894236088 93.7782557011 -9.1355017423 1.3415181455 1
-32.333871603 93.7782557011 -8.6529077158 4.1310479585 1
-28.7783195972 93.7782557011 -9.5871190461 -3.4687394911 1
-25.2227675915 93.7782557011 -12.7873641734 4.6544556714 1
-21.6672155857 93.7782557011 -9.4366505873 0.0717550878 1
-18.1116635799 93.7782557011 -9.2738903389 0.7400328439 1
-14.5561115742 93.7782557011 -12.3250798568 1.8226110196 1
-11.0005595684 93.7782557011 -12.7528200061 -0.6189516521 1
-7.4450075626 93.7782557011 -6.7582766992 -1.8437331178 1
-3.8894555569 93.7782557011 -9.3321880364 1.1388802234 1
-0.3339035511 93.7782557011 -11.3092764748 3.1061493587 1
3.2216484547 93.7782557011 -10.8482637226 0.7751244903 1
6.7772004604 93.7782557011 -8.4065067842 3.1146970975 1
10.3327524662 93.7782557011 -9.7882734764 4.6921964104 1
13.888304472 93.7782557011 -9.7375168624 -5.2629169169 1
17.4438564777 93.7782557011 0 -0 0
20.9994084835 93.7782557011 0 -0 0
24.5549604893 93.7782557011 0 -0 0
28.110512495 93.7782557011 0 -0 0
31.6660645008 93.7782557011 0 -0 0
35.2216165066 93.7782557011 -6.6533549722 0.5607245971 1
38.7771685123 93.7782557011 -5.0960417447 -0.452394371 1
42.3327205181 93.7782557011 -5.9298171448 1.0930509217 1
45.8882725239 93.7782557011 -7.8160946895 -2.1763178615 1
49.4438245296 93.7782557011 -6.1331791522 1.0072026613 1
52.9993765354 93.7782557011 0 -0 0
-124.778223753 90.2227036953 -9.4812613064 -1.1965068175 1
-121.2226717472 90.2227036953 -9.6062101733 3.842932649 1
-117.6671197414 90.2227036953 -13.0562294102 -2.121569948 1
-114.1115677357 90.2227036953 -11.6201739806 3.2582779156 1
-110.5560157299 90.2227036953 -9.1665491073 7.3900499594 1
-107.0004637241 90.2227036953 -5.789220971 3.4906563171 1
-103.4449117184 90.2227036953 -7.0548514443 -0.6161612746 1
-99.8893597126 90.2227036953 -8.5406038508 0.5658814973 1
-96.3338077068 90.2227036953 -7.9973102829 -2.079908552 1
-92.7782557011 90.2227036953 -8.4943683549 -1.0029994344 1
-89.2227036953 90.2227036953 -9.7085711108 -5.2320284974 1
-85.6671516895 90.2227036953 -12.0298649791 -0.3906881744 1
-82.1115996838 90.2227036953 -10.0349569779 0.5032216274 1
-78.556047678 90.2227036953 -11.500699905 1.1026936187 1
-75.0004956722 90.2227036953 -10.1009723651 -1.09843741 1
-71.4449436665 90.2227036953 -12.1644742037 -0.0075764048 1
-67.8893916607 90.2227036953 0 -0 0
-64.3338396549 90.2227036953 -9.5231169693 -0.384153746 1
-60.7782876492 90.2227036953 -10.4611429929 2.1147529498 1
-57.2227356434 90.2227036953 -11.5127797672 1.2634052355 1
-53.6671836376 90.2227036953 -11.1996217024 2.6478386809 1
-50.1116316319 90.2227036953 -13.2916277772 -1.2105646688 1
-46.5560796261 90.2227036953 -11.6059395231 3.301210876 1
-43.0005276203 90.2227036953 -11.730517517 0.0415377717 1
-39.4449756145 90.2227036953 -10.0676291197 3.0962594131 1
-35.8894236088 90.2227036953 -11.9837177863 5.6508676956 1
-32.333871603 90.2227036953 -12.9467865652 3.6733554024 1
-28.7783195972 90.2227036953 -10.8638227264 0.9801112745 1
-25.2227675915 90.2227036953 -9.8048391353 0.7307610198 1
-21.6672155857 90.2227036953 -7.0570943427 2.4200873611 1
-18.1116635799 90.2227036953 -11.311854925 2.6590178516 1