TITLE = "B00009"
VARIABLES = "x", "y", "Vx", "Vy", "isValid"
ZONE T="Frame 0", I=51, J=39, F=POINT
-124.778223753 125.778223753 -9.0943348435 -2.719028629 1
-121.2226717472 125.778223753 -10.5843081375 -0.1051689756 1
-117.6671197414 125.778223753 -9.5965674763 -2.9685201686 1
-114.1115677357 125.778223753 -10.0046336981 -1.5049494974 1
-110.5560157299 125.778223753 -10.0393368109 -1.3091462342 1
-107.0004637241 125.778223753 -10.9117536416 -0.9512185047 1
-103.4449117184 125.778223753 -11.3455690432 -0.567329668 1
-99.8893597126 125.778223753 -11.5070930485 2.6561215104 1
-96.3338077068 125.778223753 -7.7049387646 -0.7472383757 1
-92.7782557011 125.778223753 -8.8711752841 2.8013447659 1
-89.2227036953 125.778223753 -9.6779122793 -1.2386097289 1
-85.6671516895 125.778223753 -10.0784374175 2.2796148117 1
-82.1115996838 125.778223753 -10.8983668937 -1.3316458605 1
-78.556047678 125.778223753 -9.63930617 1.9339435506 1
-75.0004956722 125.778223753 -9.2351782659 -1.0183818321 1
-71.4449436665 125.778223753 -9.9876441843 -0.5893171364 1
-67.8893916607 125.778223753 0 -0 0
-64.3338396549 125.778223753 0 -0 0
-60.7782876492 125.778223753 0 -0 0
-57.2227356434 125.778223753 -10.5763608597 1.4658665515 1
-53.6671836376 125.778223753 -10.5823124877 -1.9275327465 1
-50.1116316319 125.778223753 -8.2557204342 0.5998958461 1
-46.5560796261 125.778223753 -10.4179274625 3.4278904834 1
-43.0005276203 125.778223753 -10.9323106 4.284395098 1
-39.4449756145 125.778223753 -10.4005494152 2.4763540876 1
-35.8894236088 125.778223753 -10.0537831958 0.9559692108 1
-32.333871603 125.778223753 -11.8410376597 3.4822498633 1
-28.7783195972 125.778223753 -9.6897272322 1.1236920926 1
-25.2227675915 125.778223753 -7.4950599894 1.0110350153 1
-21.6672155857 125.778223753 -12.4091620554 1.2771275351 1
-18.1116635799 125.778223753 -7.9010775796 2.7544028453 1
-14.5561115742 125.778223753 -10.6781036756 -2.4532716609 1
-11.0005595684 125.778223753 -12.8933102162 2.2412029692 1
-7.4450075626 125.778223753 -9.2708527127 0.772369434 1
-3.8894555569 125.778223753 -9.4606513661 -3.5481063049 1
-0.3339035511 125.778223753 -10.3281232239 1.2665841466 1
3.2216484547 125.778223753 -8.9548689492 1.4389341102 1
6.7772004604 125.778223753 -9.6338490393 1.5833449773 1
10.3327524662 125.778223753 -7.8255431197 0.7354410834 1
13.888304472 125.778223753 0 -0 0
17.4438564777 125.778223753 0 -0 0
20.9994084835 125.778223753 0 -0 0
24.5549604893 125.778223753 0 -0 0
28.110512495 125.778223753 0 -0 0
31.6660645008 125.778223753 0 -0 0
35.2216165066 125.778223753 0 -0 0
38.7771685123 125.778223753 -10.3966287582 1.1465802525 1
42.3327205181 125.778223753 -10.2939499296 -1.9044679804 1
45.8882725239 125.778223753 -8.6294014342 2.8815416288 1
49.4438245296 125.778223753 -8.9751080166 2.3906471122 1
52.9993765354 125.778223753 0 -0 0
-124.778223753 122.2226717472 -9.6348733551 0.7256217802 1
-121.2226717472 122.2226717472 -10.3865268851 -0.7526955064 1
-117.6671197414 122.2226717472 -10.0411381939 0.2298882545 1
-114.1115677357 122.2226717472 -8.2747939008 1.7179188806 1
-110.5560157299 122.2226717472 -12.5663945306 1.0357068976 1
-107.0004637241 122.2226717472 -10.213046642 1.4714826277 1
-103.4449117184 122.2226717472 -9.5509147808 -1.2019639482 1
-99.8893597126 122.2226717472 -9.436986139 1.9376876014 1
-96.3338077068 122.2226717472 -8.1595407128 -1.3792412239 1
-92.7782557011 122.2226717472 -10.8039355734 -1.8833988641 1
-89.2227036953 122.2226717472 -11.5525867984 -0.1682880216 1
-85.6671516895 122.2226717472 -8.794174993 -4.0942255716 1
-82.1115996838 122.2226717472 -11.2231809658 2.3125165416 1
-78.556047678 122.2226717472 -8.2653454706 -0.4466899916 1
-75.0004956722 122.2226717472 -9.1529680927 3.4128259769 1
-71.4449436665 122.2226717472 -12.5005557496 -1.6173063442 1
-67.8893916607 122.2226717472 0 -0 0
-64.3338396549 122.2226717472 0 -0 0
-60.7782876492 122.2226717472 0 -0 0
-57.2227356434 122.2226717472 -10.9254229593 2.8783803783 1
-53.6671836376 122.2226717472 -9.6808262811 1.9671631716 1
-50.1116316319 122.2226717472 -12.2109039664 0.2972105274 1
-46.5560796261 122.2226717472 -8.9595666734 -1.3206079747 1
-43.0005276203 122.2226717472 -9.3777347682 -2.5571690721 1
-39.4449756145 122.2226717472 -8.2619193109 -1.1721881475 1
-35.8894236088 122.2226717472 -10.4898238353 1.475209018 1
-32.333871603 122.2226717472 -10.9897429273 3.1187590394 1
-28.7783195972 122.2226717472 -7.5582673385 -1.9595514456 1
-25.2227675915 122.2226717472 -10.3108688009 1.5610925996 1
-21.6672155857 122.2226717472 -10.1441702348 1.6961610002 1
-18.1116635799 122.2226717472 -9.0440550662 1.6054913913 1
-14.5561115742 122.2226717472 -10.6453962125 1.9359745216 1
-11.0005595684 122.2226717472 -10.1418213727 1.8112199214 1
-7.4450075626 122.2226717472 -9.5384640456 1.0569879413 1
-3.8894555569 122.2226717472 -8.3408622699 3.2230449842 1
-0.3339035511 122.2226717472 -10.3538370826 2.9234502735 1
3.2216484547 122.2226717472 -8.0836707012 0.3245315023 1
6.7772004604 122.2226717472 -10.3512762931 2.6090912867 1
10.3327524662 122.2226717472 -9.3726838317 3.604072801 1
13.888304472 122.2226717472 0 -0 0
17.4438564777 122.2226717472 0 -0 0
20.9994084835 122.2226717472 0 -0 0
24.5549604893 122.2226717472 0 -0 0
28.110512495 122.2226717472 0 -0 0
31.6660645008 122.2226717472 0 -0 0
35.2216165066 122.2226717472 0 -0 0
38.7771685123 122.2226717472 -5.9787193939 3.7048089616 1
42.3327205181 122.2226717472 -8.759895735 0.0444870948 1
45.8882725239 122.2226717472 -7.8244128402 6.411086625 1
49.4438245296 122.2226717472 -10.342375342 2.1163953872 1
52.9993765354 122.2226717472 0 -0 0
-124.778223753 118.6671197414 -10.1627492042 -1.7484011059 1
-121.2226717472 118.6671197414 -8.9751963196 -2.4901646903 1
-117.6671197414 118.6671197414 -9.8386945386 1.1438251962 1
-114.1115677357 118.6671197414 -9.961312204 -1.6902800146 1
-110.5560157299 118.6671197414 -9.240388148 -0.9185287022 1
-107.0004637241 118.6671197414 -10.4093620632 -0.6222718482 1
-103.4449117184 118.6671197414 -9.4633711012 -0.6273227847 1
-99.8893597126 118.6671197414 -9.3368504393 -2.0225645278 1
-96.3338077068 118.6671197414 -10.6481512688 -0.5216593118 1
-92.7782557011 118.6671197414 -9.9355277028 0.5119812935 1
-89.2227036953 118.6671197414 -8.4862621316 0.1940548621 1
-85.6671516895 118.6671197414 -10.492790819 1.9587743784 1
-82.1115996838 118.6671197414 -10.3138004633 -0.6959342826 1
-78.556047678 118.6671197414 -9.9091957226 3.1745665899 1
-75.0004956722 118.6671197414 -10.1372649335 2.4720802182 1
-71.4449436665 118.6671197414 -9.22299244 1.8004469449 1
-67.8893916607 118.6671197414 0 -0 0
-64.3338396549 118.6671197414 0 -0 0
-60.7782876492 118.6671197414 -9.1665137861 -0.8468972387 1
-57.2227356434 118.6671197414 -10.5021862673 -3.5045199016 1
-53.6671836376 118.6671197414 -11.2535748881 -0.2674877086 1
-50.1116316319 118.6671197414 -9.7547536249 1.9147111384 1
-46.5560796261 118.6671197414 -10.7412580428 -1.3021173085 1
-43.0005276203 118.6671197414 -10.0204046293 -1.7163470857 1
-39.4449756145 118.6671197414 -7.6816973924 -0.6610722242 1
-35.8894236088 118.6671197414 -10.9287078341 1.9966387418 1
-32.333871603 118.6671197414 -10.0331026131 -2.1600700936 1
-28.7783195972 118.6671197414 -8.5309081719 1.4436671556 1
-25.2227675915 118.6671197414 -9.3705998788 -3.8183490698 1
-21.6672155857 118.6671197414 -9.960853028 5.0762265322 1
-18.1116635799 118.6671197414 -9.6186609085 2.0354567784 1
-14.5561115742 118.6671197414 -9.0394456451 0.7888644505 1
-11.0005595684 118.6671197414 -10.2908593216 5.5333186273 1
-7.4450075626 118.6671197414 -10.4973472582 1.8678751815 1
-3.8894555569 118.6671197414 -10.7326926435 -1.1887891277 1
-0.3339035511 118.6671197414 -10.3549850227 -3.710142468 1
3.2216484547 118.6671197414 -10.2890755992 -0.3846129221 1
6.7772004604 118.6671197414 -10.8040945189 -3.34910647 1
10.3327524662 118.6671197414 -9.8954557624 4.0974221433 1
13.888304472 118.6671197414 0 -0 0
17.4438564777 118.6671197414 0 -0 0
20.9994084835 118.6671197414 0 -0 0
24.5549604893 118.6671197414 0 -0 0
28.110512495 118.6671197414 0 -0 0
31.6660645008 118.6671197414 0 -0 0
35.2216165066 118.6671197414 0 -0 0
38.7771685123 118.6671197414 -7.8609349966 -2.3800507419 1
42.3327205181 118.6671197414 -8.0029440198 2.9970244048 1
45.8882725239 118.6671197414 -7.4563125952 -1.9223228644 1
49.4438245296 118.6671197414 -7.4709002651 0.4053288261 1
52.9993765354 118.6671197414 0 -0 0
-124.778223753 115.1115677357 -9.0792350158 -2.2622191037 1
-121.2226717472 115.1115677357 -9.3517383396 1.1325753831 1
-117.6671197414 115.1115677357 -9.7955496507 -1.1073560217 1
-114.1115677357 115.1115677357 -9.1353604573 2.9154500139 1
-110.5560157299 115.1115677357 -9.5109841252 -0.0404251528 1
-107.0004637241 115.1115677357 -10.0276631429 -0.362007332 1
-103.4449117184 115.1115677357 -9.0313041006 0.1990351562 1
-99.8893597126 115.1115677357 -11.3588145062 -1.0904371504 1
-96.3338077068 115.1115677357 -9.617530629 1.2986381669 1
-92.7782557011 115.1115677357 -10.9168752206 -2.4094909908 1
-89.2227036953 115.1115677357 -11.3997518169 -0.4728983476 1
-85.6671516895 115.1115677357 -9.2574836255 0.5268868545 1
-82.1115996838 115.1115677357 -10.9072325236 -2.883237048 1
-78.556047678 115.1115677357 -12.1399082851 0.0851065144 1
-75.0004956722 115.1115677357 -11.8232004363 -1.1525318805 1
-71.4449436665 115.1115677357 -12.1529418206 -0.7955048426 1
-67.8893916607 115.1115677357 0 -0 0
-64.3338396549 115.1115677357 0 -0 0
-60.7782876492 115.1115677357 -8.9223910741 2.6965819845 1
-57.2227356434 115.1115677357 -9.292433987 1.4148450283 1
-53.6671836376 115.1115677357 -10.8307797116 4.3242727717 1
-50.1116316319 115.1115677357 -11.0004099401 0.4637854691 1
-46.5560796261 115.1115677357 -8.4168559059 1.4627582828 1
-43.0005276203 115.1115677357 -8.9759204049 2.1626662043 1
-39.4449756145 115.1115677357 -9.7070522977 1.2277307887 1
-35.8894236088 115.1115677357 -10.1499629173 -0.1787607676 1
-32.333871603 115.1115677357 -11.0330467607 -6.8393389323 1
-28.7783195972 115.1115677357 -6.3334858729 3.0587835833 1
-25.2227675915 115.1115677357 -9.749349476 -3.1823902433 1
-21.6672155857 115.1115677357 -11.3339836783 2.6444125212 1
-18.1116635799 115.1115677357 -9.3460516209 2.8407632636 1
-14.5561115742 115.1115677357 -7.6446100962 -3.4627702025 1
-11.0005595684 115.1115677357 -9.2195132984 4.6146839614 1
-7.4450075626 115.1115677357 -9.3246116316 2.8365247154 1
-3.8894555569 115.1115677357 -12.2080076251 1.1192592777 1
-0.3339035511 115.1115677357 -8.6986487144 3.8575556401 1
3.2216484547 115.1115677357 -7.5349200025 -1.8324126621 1
6.7772004604 115.1115677357 -8.9518666443 -0.8819535639 1
10.3327524662 115.1115677357 -10.4511824048 -0.5423928764 1
13.888304472 115.1115677357 0 -0 0
17.4438564777 115.1115677357 0 -0 0
20.9994084835 115.1115677357 0 -0 0
24.5549604893 115.1115677357 0 -0 0
28.110512495 115.1115677357 0 -0 0
31.6660645008 115.1115677357 0 -0 0
35.2216165066 115.1115677357 -8.786192394 0.3397019725 1
38.7771685123 115.1115677357 -9.2090052312 -0.3389425659 1
42.3327205181 115.1115677357 -5.6273967353 1.7911044784 1
45.8882725239 115.1115677357 -8.7376610179 2.9236268796 1
49.4438245296 115.1115677357 -8.1312307434 -2.7287243079 1
52.9993765354 115.1115677357 0 -0 0
-124.778223753 111.5560157299 -10.6192231777 -0.5821292652 1
-121.2226717472 111.5560157299 -10.1644446234 0.0699537049 1
-117.6671197414 111.5560157299 -11.1099057669 0.9761906175 1
-114.1115677357 111.5560157299 -9.1856049133 2.3852076421 1
-110.5560157299 111.5560157299 -11.2893023167 1.5868064583 1
-107.0004637241 111.5560157299 -9.9154475811 -0.8427116724 1
-103.4449117184 111.5560157299 -11.6199620532 -1.9057395449 1
-99.8893597126 111.5560157299 -10.0341799107 2.0545832269 1
-96.3338077068 111.5560157299 -10.6864571475 1.4999692033 1
-92.7782557011 111.5560157299 -9.9639259754 -1.0989848891 1
-89.2227036953 111.5560157299 -8.3504873063 -1.393634627 1
-85.6671516895 111.5560157299 -10.0898991581 -1.354092505 1
-82.1115996838 111.5560157299 -10.9713229035 4.0151060064 1
-78.556047678 111.5560157299 -11.3870361725 1.2560407581 1
-75.0004956722 111.5560157299 -10.3203878736 0.7582939221 1
-71.4449436665 111.5560157299 -10.2079074024 2.8824953021 1
-67.8893916607 111.5560157299 0 -0 0
-64.3338396549 111.5560157299 0 -0 0
-60.7782876492 111.5560157299 -10.07421653 -0.3740695336 1
-57.2227356434 111.5560157299 -9.5985454655 1.6298277218 1
-53.6671836376 111.5560157299 -11.4630298085 3.0024991962 1
-50.1116316319 111.5560157299 -10.738944502 3.2358842529 1
-46.5560796261 111.5560157299 -9.4623467854 -0.4473434345 1
-43.0005276203 111.5560157299 -9.5325477389 0.0507036321 1
-39.4449756145 111.5560157299 -10.7375846344 2.18543074 1
-35.8894236088 111.5560157299 -8.5005672315 1.8058510938 1
-32.333871603 111.5560157299 -12.3803399281 -0.1888449801 1
-28.7783195972 111.5560157299 -8.404899668 -2.2160542502 1
-25.2227675915 111.5560157299 -10.106235229 3.3226332047 1
-21.6672155857 111.5560157299 -13.4795544052 -0.2623308084 1
-18.1116635799 111.5560157299 -11.1036892296 3.2398049099 1
-14.5561115742 111.5560157299 -8.064208701 4.6036813969 1
-11.0005595684 111.5560157299 -10.5496933277 3.6000815015 1
-7.4450075626 111.5560157299 -8.1633554061 -0.0125743595 1
-3.8894555569 111.5560157299 -9.7729617212 2.227092136 1
-0.3339035511 111.5560157299 -8.6320858481 1.0251988303 1
3.2216484547 111.5560157299 -9.4224337904 2.2811159641 1
6.7772004604 111.5560157299 -10.971393546 1.3798063637 1
10.3327524662 111.5560157299 -8.5750773756 1.2010455961 1
13.888304472 111.5560157299 0 -0 0
17.4438564777 111.5560157299 0 -0 0
20.9994084835 111.5560157299 0 -0 0
24.5549604893 111.5560157299 0 -0 0
28.110512495 111.5560157299 0 -0 0
31.6660645008 111.5560157299 0 -0 0
35.2216165066 111.5560157299 -8.69880766 -0.0306588315 1
38.7771685123 111.5560157299 -8.9300381214 3.4001279932 1
42.3327205181 111.5560157299 -6.2228597665 1.3187182887 1
45.8882725239 111.5560157299 -8.0156420036 3.3777873124 1
49.4438245296 111.5560157299 -8.7465796296 3.1001094276 1
52.9993765354 111.5560157299 0 -0 0
-124.778223753 108.0004637241 -9.5240883032 0.5780673232 1
-121.2226717472 108.0004637241 -9.8009714602 -2.084659258 1
-117.6671197414 108.0004637241 -10.5372955744 -0.9663183325 1
-114.1115677357 108.0004637241 -11.0638292166 -1.5867181552 1
-110.5560157299 108.0004637241 -9.6058393004 -0.3627314173 1
-107.0004637241 108.0004637241 -10.3080254415 -1.4007518557 1
-103.4449117184 108.0004637241 -10.4891703924 -2.4153896369 1
-99.8893597126 108.0004637241 -9.7245009875 -0.0896629537 1
-96.3338077068 108.0004637241 -11.3644129218 -0.358687136 1
-92.7782557011 108.0004637241 -11.2147921726 -2.4988890352 1
-89.2227036953 108.0004637241 -11.3868419057 0.8793397926 1
-85.6671516895 108.0004637241 -10.9132901153 0.9098573392 1
-82.1115996838 108.0004637241 -9.302076684 -3.1562348692 1
-78.556047678 108.0004637241 -11.775322503 -1.0966713482 1
-75.0004956722 108.0004637241 -10.6234264046 1.1863872838 1
-71.4449436665 108.0004637241 -10.7903368981 0.6965347436 1
-67.8893916607 108.0004637241 0 -0 0
-64.3338396549 108.0004637241 0 -0 0
-60.7782876492 108.0004637241 -10.2229012664 0.4820818686 1
-57.2227356434 108.0004637241 -9.4100536977 0.62804687 1
-53.6671836376 108.0004637241 -8.21697304 2.7681074843 1
-50.1116316319 108.0004637241 -8.5815588222 1.7786360826 1
-46.5560796261 108.0004637241 -9.6586975277 -3.1484112158 1
-43.0005276203 108.0004637241 -8.1206873549 1.2831851268 1
-39.4449756145 108.0004637241 -11.1439907582 0.9567639385 1
-35.8894236088 108.0004637241 -10.9818309707 5.5642600287 1
-32.333871603 108.0004637241 -7.3496424672 2.741404631 1
-28.7783195972 108.0004637241 -8.2941322767 -0.5004312499 1
-25.2227675915 108.0004637241 -12.279762713 -1.335407572 1
-21.6672155857 108.0004637241 -9.1500894121 1.5064506499 1
-18.1116635799 108.0004637241 -8.5097684131 -1.862223784 1
-14.5561115742 108.0004637241 -9.9529940533 0.8732468796 1
-11.0005595684 108.0004637241 -11.4829863059 2.4628260548 1
-7.4450075626 108.0004637241 -8.4079726154 3.5831979514 1
-3.8894555569 108.0004637241 -9.8903871652 0.2004833268 1
-0.3339035511 108.0004637241 -8.1941731832 4.842629548 1
3.2216484547 108.0004637241 -10.2800333632 -1.773267255 1
6.7772004604 108.0004637241 -9.6223519775 1.0743130068 1
10.3327524662 108.0004637241 -10.6257752667 -1.2155273022 1
13.888304472 108.0004637241 0 -0 0
17.4438564777 108.0004637241 0 -0 0
20.9994084835 108.0004637241 0 -0 0
24.5549604893 108.0004637241 0 -0 0
28.110512495 108.0004637241 0 -0 0
31.6660645008 108.0004637241 0 -0 0
35.2216165066 108.0004637241 -8.9371553501 -1.6723368275 1
38.7771685123 108.0004637241 -9.3122491995 -2.4042987693 1
42.3327205181 108.0004637241 -8.6549210261 3.0819366525 1
45.8882725239 108.0004637241 -6.8166803603 -1.1863872838 1
49.4438245296 108.0004637241 -10.5091092293 1.1599670004 1
52.9993765354 108.0004637241 0 -0 0
-124.778223753 104.4449117184 -8.9007214968 -1.3790822784 1
-121.2226717472 104.4449117184 -10.5454724402 -2.3372060844 1
-117.6671197414 104.4449117184 -8.5502112266 -1.7595449554 1
-114.1115677357 104.4449117184 -8.7981309713 -1.5075809294 1
-110.5560157299 104.4449117184 -11.0733836105 -1.0268589283 1
-107.0004637241 104.4449117184 -10.1150655376 1.7512268047 1
-103.4449117184 104.4449117184 -10.4761015357 0.379862216 1
-99.8893597126 104.4449117184 -9.6577968363 -0.4143710621 1
-96.3338077068 104.4449117184 -11.0792116142 -0.2620658991 1
-92.7782557011 104.4449117184 -12.9003214812 1.4490889651 1
-89.2227036953 104.4449117184 -11.6210570114 1.1715700259 1
-85.6671516895 104.4449117184 -10.6279475227 -0.4018320239 1
-82.1115996838 104.4449117184 -10.549357776 1.2775160687 1
-78.556047678 104.4449117184 -10.7562519068 -0.5655459456 1
-75.0004956722 104.4449117184 -9.422822324 1.6542523555 1
-71.4449436665 104.4449117184 -11.2607274381 2.1488732623 1
-67.8893916607 104.4449117184 0 -0 0
-64.3338396549 104.4449117184 0 -0 0
-60.7782876492 104.4449117184 -10.5671243569 0.3823876843 1
-57.2227356434 104.4449117184 -9.9489850932 -0.4127639459 1
-53.6671836376 104.4449117184 -11.4621467776 1.8880789276 1
-50.1116316319 104.4449117184 -9.9840944002 0.2710551533 1
-46.5560796261 104.4449117184 -10.3711974693 -0.5878689658 1
-43.0005276203 104.4449117184 -12.6288248125 0.0479485758 1
-39.4449756145 104.4449117184 -12.6772325644 2.2421566425 1
-35.8894236088 104.4449117184 -10.4981066648 4.5970939867 1
-32.333871603 104.4449117184 -11.0367908116 1.8219928979 1
-28.7783195972 104.4449117184 -10.5949221684 2.5730283063 1
-25.2227675915 104.4449117184 -8.3183273223 3.0642760353 1
-21.6672155857 104.4449117184 -10.4301486097 -0.2960625873 1
-18.1116635799 104.4449117184 -10.8277950672 0.3273395404 1
-14.5561115742 104.4449117184 -7.753505462 0.5791092996 1
-11.0005595684 104.4449117184 -8.7335814153 -1.6134210084 1
-7.4450075626 104.4449117184 -10.7584948052 1.387312126 1
-3.8894555569 104.4449117184 -8.9379853991 1.6928231435 1
-0.3339035511 104.4449117184 -9.9057872234 2.1122451422 1
3.2216484547 104.4449117184 -10.1010430075 3.7205622322 1
6.7772004604 104.4449117184 -10.9458209722 1.9070287699 1
10.3327524662 104.4449117184 -9.2250763929 -3.2801770809 1
13.888304472 104.4449117184 0 -0 0
17.4438564777 104.4449117184 0 -0 0
20.9994084835 104.4449117184 0 -0 0
24.5549604893 104.4449117184 0 -0 0
28.110512495 104.4449117184 0 -0 0
31.6660645008 104.4449117184 0 -0 0
35.2216165066 104.4449117184 -5.2731070931 2.0793434122 1
38.7771685123 104.4449117184 -6.4121639226 -0.8323095689 1
42.3327205181 104.4449117184 -6.8325572552 2.0697007152 1
45.8882725239 104.4449117184 -6.5343753939 -0.2755232894 1
49.4438245296 104.4449117184 -8.4587115687 4.9810887871 1
52.9993765354 104.4449117184 0 -0 0
-124.778223753 100.8893597126 -8.0889512257 -2.8481454016 1
-121.2226717472 100.8893597126 -8.7019335892 -1.268827045 1
-117.6671197414 100.8893597126 -8.0412675592 -1.3181884702 1
-114.1115677357 100.8893597126 -9.1962542655 -2.3024676504 1
-110.5560157299 100.8893597126 -10.1033565484 -1.2958301288 1
-107.0004637241 100.8893597126 -9.1403054301 -0.5766368132 1
-103.4449117184 100.8893597126 -11.4326182256 -1.2418239613 1
-99.8893597126 100.8893597126 -9.9088778314 0.8580410882 1
-96.3338077068 100.8893597126 -9.9212049423 -1.8674866479 1
-92.7782557011 100.8893597126 -10.3915778216 -0.3987590765 1
-89.2227036953 100.8893597126 -11.6325717339 -1.0700921193 1
-85.6671516895 100.8893597126 -9.4612165059 -0.3915712053 1
-82.1115996838 100.8893597126 -10.4107219307 1.734555182 1
-78.556047678 100.8893597126 -11.2809135236 0.548733038 1
-75.0004956722 100.8893597126 -9.6700709652 -0.1045861752 1
-71.4449436665 100.8893597126 -10.8182053521 -0.3403377547 1
-67.8893916607 100.8893597126 0 -0 0
-64.3338396549 100.8893597126 0 -0 0
-60.7782876492 100.8893597126 -11.1315047018 3.6221396124 1
-57.2227356434 100.8893597126 -10.264862893 0.3727096661 1
-53.6671836376 100.8893597126 -11.6243595469 1.8163768217 1
-50.1116316319 100.8893597126 -12.5991902968 1.9688585908 1
-46.5560796261 100.8893597126 -11.7000882736 0.6933205113 1
-43.0005276203 100.8893597126 -12.5012621743 3.6604454912 1
-39.4449756145 100.8893597126 -11.2579370605 1.597756041 1
-35.8894236088 100.8893597126 -11.3538518727 6.157780392 1
-32.333871603 100.8893597126 -6.8203714293 -0.2215347826 1
-28.7783195972 100.8893597126 -9.3587142834 3.2475402603 1
-25.2227675915 100.8893597126 -10.0936608695 3.651314952 1
-21.6672155857 100.8893597126 -9.41211999 4.8846441564 1
-18.1116635799 100.8893597126 -10.0231773462 5.2580072653 1
-14.5561115742 100.8893597126 -11.316376043 2.8695500697 1
-11.0005595684 100.8893597126 -8.8995205748 1.803855444 1
-7.4450075626 100.8893597126 -10.9475340521 4.7847027235 1
-3.8894555569 100.8893597126 -11.6512919881 -2.4302245554 1
-0.3339035511 100.8893597126 -8.2012374301 -1.7431912239 1
3.2216484547 100.8893597126 -9.6227581717 -3.2043953724 1
6.7772004604 100.8893597126 -8.541610506 0.6536724256 1
10.3327524662 100.8893597126 -11.0390866918 1.6342252155 1
13.888304472 100.8893597126 0 -0 0
17.4438564777 100.8893597126 0 -0 0
20.9994084835 100.8893597126 0 -0 0
24.5549604893 100.8893597126 0 -0 0
28.110512495 100.8893597126 0 -0 0
31.6660645008 100.8893597126 0 -0 0
35.2216165066 100.8893597126 -9.5957727485 3.6826625476 1
38.7771685123 100.8893597126 -8.008471793 1.8053565965 1
42.3327205181 100.8893597126 -5.8001175719 -0.5523534645 1
45.8882725239 100.8893597126 -7.3649365617 4.2775780997 1
49.4438245296 100.8893597126 -5.4617224851 -0.1972514339 1
52.9993765354 100.8893597126 0 -0 0
-124.778223753 97.3338077068 -8.6816062188 -2.1682469594 1
-121.2226717472 97.3338077068 -8.8892597562 -0.3263328852 1
-117.6671197414 97.3338077068 -8.8302909553 -3.2248287065 1
-114.1115677357 97.3338077068 -9.9598463728 -1.6601510016 1
-110.5560157299 97.3338077068 -8.8742658922 -1.4606036875 1
-107.0004637241 97.3338077068 -11.1952418694 -1.1811420805 1
-103.4449117184 97.3338077068 -11.4230108498 -1.3259591418 1
-99.8893597126 97.3338077068 -11.1744376623 -1.0346825818 1
-96.3338077068 97.3338077068 -12.0794030105 0.1643143827 1
-92.7782557011 97.3338077068 -10.9300323804 0.085865921 1
-89.2227036953 97.3338077068 -10.9546689414 -1.8655969619 1
-85.6671516895 97.3338077068 -11.3593266641 0.8369366506 1
-82.1115996838 97.3338077068 -10.8021695116 1.1590133271 1
-78.556047678 97.3338077068 -10.8314684756 1.5740025108 1
-75.0004956722 97.3338077068 -11.0824788283 1.734325594 1
-71.4449436665 97.3338077068 -10.4953516085 2.3255677377 1
-67.8893916607 97.3338077068 0 -0 0
-64.3338396549 97.3338077068 0 -0 0
-60.7782876492 97.3338077068 -11.1744906441 2.1271683637 1
-57.2227356434 97.3338077068 -10.6776974814 -1.5615517756 1
-53.6671836376 97.3338077068 -11.7022605295 1.5138681091 1
-50.1116316319 97.3338077068 -9.9251255993 1.606798277 1
-46.5560796261 97.3338077068 -8.5659115153 0.100859785 1
-43.0005276203 97.3338077068 -10.3794096564 0.7949573635 1
-39.4449756145 97.3338077068 -10.674253661 0.0695121894 1
-35.8894236088 97.3338077068 -8.5738058112 1.0942165224 1
-32.333871603 97.3338077068 -12.4118817905 -0.8909604787 1
-28.7783195972 97.3338077068 -10.1610184637 4.0658272991 1
-25.2227675915 97.3338077068 -8.683301638 0.8677897489 1
-21.6672155857 97.3338077068 -9.7122798404 -1.860334098 1
-18.1116635799 97.3338077068 -11.1405999197 1.9583681842 1
-14.5561115742 97.3338077068 -8.391195029 2.3278282967 1
-11.0005595684 97.3338077068 -7.1263946047 -2.1329787068 1
-7.4450075626 97.3338077068 -12.1202343575 1.1163805971 1
-3.8894555569 97.3338077068 -11.6377286341 -0.2774482967 1
-0.3339035511 97.3338077068 -8.6596187503 0.866076669 1
3.2216484547 97.3338077068 -10.2698078658 2.848127741 1
6.7772004604 97.3338077068 -8.4207765629 4.8347352521 1
10.3327524662 97.3338077068 -10.8972189536 -0.0732032584 1
13.888304472 97.3338077068 -5.4087229728 1.2863640379 1
17.4438564777 97.3338077068 0 -0 0
20.9994084835 97.3338077068 0 -0 0
24.5549604893 97.3338077068 0 -0 0
28.110512495 97.3338077068 0 -0 0
31.6660645008 97.3338077068 0 -0 0
35.2216165066 97.3338077068 -8.6892885873 1.7419903019 1
38.7771685123 97.3338077068 -7.4140683988 3.2109474614 1
42.3327205181 97.3338077068 -9.2179944853 -1.1164159183 1
45.8882725239 97.3338077068 -9.1937464579 -1.4553584842 1
49.4438245296 97.3338077068 -8.6659412513 5.8776830027 1
52.9993765354 97.3338077068 0 -0 0
-124.778223753 93.7782557011 -7.7102369498 -0.7929263925 1
-121.2226717472 93.7782557011 -7.9154180008 -2.0276507856 1
-117.6671197414 93.7782557011 -7.9138285452 -2.0140874316 1
-114.1115677357 93.7782557011 -8.2582282419 -0.8581470519 1
-110.5560157299 93.7782557011 -10.6588712634 -2.8633688536 1
-107.0004637241 93.7782557011 -13.3347373439 -2.3223358447 1
-103.4449117184 93.7782557011 -13.1045488589 0.075622763 1
-99.8893597126 93.7782557011 -13.5484837943 -1.7029779984 1
-96.3338077068 93.7782557011 -9.905804884 -1.0563344985 1
-92.7782557011 93.7782557011 -9.0988736221 0.1709194536 1
-89.2227036953 93.7782557011 -11.331369907 -1.1019342122 1
-85.6671516895 93.7782557011 -12.5636394743 -0.9314915953 1
-82.1115996838 93.7782557011 -9.5263488622 0.6789094476 1
-78.556047678 93.7782557011 -11.3393878272 1.2953003102 1
-75.0004956722 93.7782557011 -10.3490157341 0.2479197447 1
-71.4449436665 93.7782557011 -12.6044001789 -0.7753364177 1
-67.8893916607 93.7782557011 0 -0 0
-64.3338396549 93.7782557011 -6.0643557269 3.9249838767 1
-60.7782876492 93.7782557011 -10.9307917869 -0.5187453099 1
-57.2227356434 93.7782557011 -10.3291652003 1.7342726122 1
-53.6671836376 93.7782557011 -13.7509274496 2.4717270059 1
-50.1116316319 93.7782557011 -10.8180287459 0.5408387421 1
-46.5560796261 93.7782557011 -14.0833532477 2.6081022922 1
-43.0005276203 93.7782557011 -12.0057582366 2.4493686645 1
-39.4449756145 93.7782557011 -12.8737422523 1.8552831614 1
-35.8894236088 93.7782557011 -10.8870817593 -0.6399324654 1
-32.333871603 93.7782557011 -11.0511135721 1.2501597726 1
-28.7783195972 93.7782557011 -9.5428791999 3.2951003025 1
-25.2227675915 93.7782557011 -9.7198739058 -0.7408628929 1
-21.6672155857 93.7782557011 -9.3992630606 -0.7291009218 1
-18.1116635799 93.7782557011 -11.2323291656 3.3780698822 1
-14.5561115742 93.7782557011 -11.2455393072 6.1121630177 1
-11.0005595684 93.7782557011 -9.6088769265 3.4159342456 1
-7.4450075626 93.7782557011 -7.138933643 2.9124300483 1
-3.8894555569 93.7782557011 -10.4998903871 4.216754934 1
-0.3339035511 93.7782557011 -10.1226772637 4.0573502028 1
3.2216484547 93.7782557011 -8.5367361756 -1.3498892781 1
6.7772004604 93.7782557011 -9.4152635798 1.4494245168 1
10.3327524662 93.7782557011 -7.8203685589 0.6075075722 1
13.888304472 93.7782557011 -10.4114106948 4.9014394034 1
17.4438564777 93.7782557011 0 -0 0
20.9994084835 93.7782557011 0 -0 0
24.5549604893 93.7782557011 0 -0 0
28.110512495 93.7782557011 0 -0 0
31.6660645008 93.7782557011 0 -0 0
35.2216165066 93.7782557011 -4.9630219757 -3.2302681766 1
38.7771685123 93.7782557011 -5.9986405702 3.6643308269 1
42.3327205181 93.7782557011 -7.9863783608 2.3640149014 1
45.8882725239 93.7782557011 -8.1671347782 2.2342093648 1
49.4438245296 93.7782557011 -5.3165698721 -1.2529501501 1
52.9993765354 93.7782557011 0 -0 0
-124.778223753 90.2227036953 -8.2001601324 -0.8343582005 1
-121.2226717472 90.2227036953 -6.6059008937 -1.0794522464 1
-117.6671197414 90.2227036953 -9.560363211 -2.4171910199 1
-114.1115677357 90.2227036953 -7.8509214267 -1.8884144794 1
-110.5560157299 90.2227036953 -11.2187834721 -2.6123761615 1
-107.0004637241 90.2227036953 -11.6679282896 -4.7540085708 1
-103.4449117184 90.2227036953 -12.534958632 -3.6699292426 1
-99.8893597126 90.2227036953 -10.9803474789 -0.8235145815 1
-96.3338077068 90.2227036953 -12.7157503706 1.2977904573 1
-92.7782557011 90.2227036953 -10.6271881161 -0.3979290275 1
-89.2227036953 90.2227036953 -12.4799987911 -3.2332528209 1
-85.6671516895 90.2227036953 -11.2974615219 -0.3652215644 1
-82.1115996838 90.2227036953 -10.3699788868 -2.6528896175 1
-78.556047678 90.2227036953 -12.5870044709 0.0179608477 1
-75.0004956722 90.2227036953 -11.3901621018 2.2609475392 1
-71.4449436665 90.2227036953 -12.2331033622 2.782147675 1
-67.8893916607 90.2227036953 0 -0 0
-64.3338396549 90.2227036953 -8.536347642 -4.7421053147 1
-60.7782876492 90.2227036953 -9.830323406 0.6875454894 1
-57.2227356434 90.2227036953 -12.1691895885 2.7073902822 1
-53.6671836376 90.2227036953 -14.225821447 0.5085198126 1
-50.1116316319 90.2227036953 -12.2212884093 0.0165479983 1
-46.5560796261 90.2227036953 -11.8016368226 3.3820611817 1
-43.0005276203 90.2227036953 -9.3853994761 0.5935910058 1
-39.4449756145 90.2227036953 -9.5979803257 -3.4476527141 1
-35.8894236088 90.2227036953 -9.3923047774 1.022214186 1
-32.333871603 90.2227036953 -14.9375973032 -3.1163218742 1
-28.7783195972 90.2227036953 -11.7232236821 5.2837741059 1
-25.2227675915 90.2227036953 -11.5436505261 2.9246158742 1
-21.6672155857 90.2227036953 -12.7743129773 4.1564439261 1
-18.1116635799 90.2227036953 -9.0987323372 2.7396209087 1
-14.5561115742 90.2227036953 -9.4478650792 -2.0310769454 1