TITLE = "B00015"
VARIABLES = "x", "y", "Vx", "Vy", "isValid"
ZONE T="Frame 0", I=102, J=78, F=POINT
-125.6671117544 126.6671117544 0 -0 0
-123.8893357515 126.6671117544 0 -0 0
-122.1115597486 126.6671117544 0 -0 0
-120.3337837458 126.6671117544 0 -0 0
-118.5560077429 126.6671117544 0 -0 0
-116.77823174 126.6671117544 0 -0 0
-115.0004557371 126.6671117544 0 -0 0
-113.2226797342 126.6671117544 0 -0 0
-111.4449037313 126.6671117544 0 -0 0
-109.6671277285 126.6671117544 0 -0 0
-107.8893517256 126.6671117544 0 -0 0
-106.1115757227 126.6671117544 0 -0 0
-104.3337997198 126.6671117544 0 -0 0
-102.5560237169 126.6671117544 0 -0 0
-100.778247714 126.6671117544 0 -0 0
-99.0004717112 126.6671117544 0 -0 0
-97.2226957083 126.6671117544 0 -0 0
-95.4449197054 126.6671117544 0 -0 0
-93.6671437025 126.6671117544 0 -0 0
-91.8893676996 126.6671117544 0 -0 0
-90.1115916967 126.6671117544 0 -0 0
-88.3338156939 126.6671117544 0 -0 0
-86.556039691 126.6671117544 0 -0 0
-84.7782636881 126.6671117544 0 -0 0
-83.0004876852 126.6671117544 0 -0 0
-81.2227116823 126.6671117544 0 -0 0
-79.4449356794 126.6671117544 0 -0 0
-77.6671596766 126.6671117544 0 -0 0
-75.8893836737 126.6671117544 0 -0 0
-74.1116076708 126.6671117544 0 -0 0
-72.3338316679 126.6671117544 0 -0 0
-70.556055665 126.6671117544 0 -0 0
-68.7782796621 126.6671117544 0 -0 0
-67.0005036592 126.6671117544 0 -0 0
-65.2227276564 126.6671117544 0 -0 0
-63.4449516535 126.6671117544 0 -0 0
-61.6671756506 126.6671117544 0 -0 0
-59.8893996477 126.6671117544 0 -0 0
-58.1116236448 126.6671117544 0 -0 0
-56.3338476419 126.6671117544 0 -0 0
-54.5560716391 126.6671117544 0 -0 0
-52.7782956362 126.6671117544 0 -0 0
-51.0005196333 126.6671117544 0 -0 0
-49.2227436304 126.6671117544 0 -0 0
-47.4449676275 126.6671117544 0 -0 0
-45.6671916246 126.6671117544 0 -0 0
-43.8894156218 126.6671117544 0 -0 0
-42.1116396189 126.6671117544 0 -0 0
-40.333863616 126.6671117544 0 -0 0
-38.5560876131 126.6671117544 0 -0 0
-36.7783116102 126.6671117544 0 -0 0
-35.0005356073 126.6671117544 0 -0 0
-33.2227596045 126.6671117544 0 -0 0
-31.4449836016 126.6671117544 0 -0 0
-29.6672075987 126.6671117544 0 -0 0
-27.8894315958 126.6671117544 0 -0 0
-26.1116555929 126.6671117544 0 -0 0
-24.33387959 126.6671117544 0 -0 0
-22.5561035872 126.6671117544 0 -0 0
-20.7783275843 126.6671117544 0 -0 0
-19.0005515814 126.6671117544 0 -0 0
-17.2227755785 126.6671117544 0 -0 0
-15.4449995756 126.6671117544 0 -0 0
-13.6672235727 126.6671117544 0 -0 0
-11.8894475698 126.6671117544 0 -0 0
-10.111671567 126.6671117544 0 -0 0
-8.3338955641 126.6671117544 0 -0 0
-6.5561195612 126.6671117544 0 -0 0
-4.7783435583 126.6671117544 0 -0 0
-3.0005675554 126.6671117544 0 -0 0
-1.2227915525 126.6671117544 0 -0 0
0.5549844503 126.6671117544 0 -0 0
2.3327604532 126.6671117544 0 -0 0
4.1105364561 126.6671117544 0 -0 0
5.888312459 126.6671117544 0 -0 0
7.6660884619 126.6671117544 0 -0 0
9.4438644648 126.6671117544 0 -0 0
11.2216404676 126.6671117544 0 -0 0
12.9994164705 126.6671117544 0 -0 0
14.7771924734 126.6671117544 0 -0 0
16.5549684763 126.6671117544 0 -0 0
18.3327444792 126.6671117544 0 -0 0
20.1105204821 126.6671117544 0 -0 0
21.8882964849 126.6671117544 0 -0 0
23.6660724878 126.6671117544 0 -0 0
25.4438484907 126.6671117544 0 -0 0
27.2216244936 126.6671117544 0 -0 0
28.9994004965 126.6671117544 0 -0 0
30.7771764994 126.6671117544 0 -0 0
32.5549525023 126.6671117544 0 -0 0
34.3327285051 126.6671117544 0 -0 0
36.110504508 126.6671117544 0 -0 0
37.8882805109 126.6671117544 0 -0 0
39.6660565138 126.6671117544 0 -0 0
41.4438325167 126.6671117544 0 -0 0
43.2216085196 126.6671117544 0 -0 0
44.9993845224 126.6671117544 0 -0 0
46.7771605253 126.6671117544 0 -0 0
48.5549365282 126.6671117544 0 -0 0
50.3327125311 126.6671117544 0 -0 0
52.110488534 126.6671117544 0 -0 0
53.8882645369 126.6671117544 0 -0 0
-125.6671117544 124.8893357515 0 -0 0
-123.8893357515 124.8893357515 -9.7151938423 -0.2689712004 1
-122.1115597486 124.8893357515 -10.2586463557 0.8080438808 1
-120.3337837458 124.8893357515 -10.7522429467 0.911941292 1
-118.5560077429 124.8893357515 -10.22758133 0.1079063713 1
-116.77823174 124.8893357515 -9.2967784988 -0.5458013755 1
-115.0004557371 124.8893357515 -8.7185345694 -0.6746179176 1
-113.2226797342 124.8893357515 -9.7793548647 -1.2167635454 1
-111.4449037313 124.8893357515 -10.7819304443 -2.9355301356 1
-109.6671277285 124.8893357515 -11.0209139167 -3.1551222503 1
-107.8893517256 124.8893357515 -10.4291596151 -1.5904445454 1
-106.1115757227 124.8893357515 -11.0992387541 -0.1812862359 1
-104.3337997198 124.8893357515 -10.8923269626 -0.9130362503 1
-102.5560237169 124.8893357515 -9.6742212103 -1.3223387152 1
-100.778247714 124.8893357515 -10.0204222899 -0.6136358063 1
-99.0004717112 124.8893357515 -11.0980025109 -0.3392957783 1
-97.2226957083 124.8893357515 -11.3377453898 -1.2617981194 1
-95.4449197054 124.8893357515 -12.730126113 -0.9882351584 1
-93.6671437025 124.8893357515 -11.9608649476 0.8886999197 1
-91.8893676996 124.8893357515 -9.2072391694 1.1186588167 1
-90.1115916967 124.8893357515 -10.8052601197 0.1378411175 1
-88.3338156939 124.8893357515 -11.3879898458 0.5479206496 1
-86.556039691 124.8893357515 -11.2973025764 0.5841425756 1
-84.7782636881 124.8893357515 -11.9233891178 -0.023576924 1
-83.0004876852 124.8893357515 -10.6730703997 0.1116504221 1
-81.2227116823 124.8893357515 -11.4264193489 -0.0622183545 1
-79.4449356794 124.8893357515 -14.0950975582 -0.5609365245 1
-77.6671596766 124.8893357515 -13.0023998488 -0.1185204022 1
-75.8893836737 124.8893357515 -11.3520681504 0.5750296971 1
-74.1116076708 124.8893357515 -10.6127240706 0.718292624 1
-72.3338316679 124.8893357515 -11.7359746478 1.3390456591 1
-70.556055665 124.8893357515 -11.3021415855 1.2299913477 1
-68.7782796621 124.8893357515 0 -0 0
-67.0005036592 124.8893357515 0 -0 0
-65.2227276564 124.8893357515 0 -0 0
-63.4449516535 124.8893357515 0 -0 0
-61.6671756506 124.8893357515 0 -0 0
-59.8893996477 124.8893357515 -8.8558105472 0.1682350397 1
-58.1116236448 124.8893357515 -10.7091157195 -0.3959157171 1
-56.3338476419 124.8893357515 -9.5215981562 -0.0694592076 1
-54.5560716391 124.8893357515 -8.0283929692 0.6994487455 1
-52.7782956362 124.8893357515 -6.5286533539 1.6422431358 1
-51.0005196333 124.8893357515 -9.2371209338 1.2528088652 1
-49.2227436304 124.8893357515 -10.9546866021 1.1302441816 1
-47.4449676275 124.8893357515 -11.126789317 0.7834956229 1
-45.6671916246 124.8893357515 -10.5720693297 0.0554719987 1
-43.8894156218 124.8893357515 -9.9323664524 2.0974985268 1
-42.1116396189 124.8893357515 -9.6489312064 0.870138611 1
-40.333863616 124.8893357515 -9.644798622 -0.200059472 1
-38.5560876131 124.8893357515 -10.774195094 2.3202872131 1
-36.7783116102 124.8893357515 -10.9741309416 0.4514230371 1
-35.0005356073 124.8893357515 -9.7813328538 -1.7036314413 1
-33.2227596045 124.8893357515 -7.7992288 -2.6598125794 1
-31.4449836016 124.8893357515 -9.3011406713 -2.6375425411 1
-29.6672075987 124.8893357515 -12.956023068 -0.0820159064 1
-27.8894315958 124.8893357515 -11.2482767029 0.1866374029 1
-26.1116555929 124.8893357515 -11.1671085061 -0.1194387543 1
-24.33387959 124.8893357515 -8.3096559593 0.7244561795 1
-22.5561035872 124.8893357515 -6.4840249742 2.7994197586 1
-20.7783275843 124.8893357515 -8.6133479332 2.9716107766 1
-19.0005515814 124.8893357515 -10.8935455452 0.9407810799 1
-17.2227755785 124.8893357515 -11.7913230222 0.9218842195 1
-15.4449995756 124.8893357515 -12.7974130646 2.1651386908 1
-13.6672235727 124.8893357515 -9.4622055004 1.8578969328 1
-11.8894475698 124.8893357515 -10.1946089576 1.3136673522 1
-10.111671567 124.8893357515 -13.013190486 2.5043991478 1
-8.3338955641 124.8893357515 -11.9722737063 1.6985805047 1
-6.5561195612 124.8893357515 -8.7032228143 1.3241047769 1
-4.7783435583 124.8893357515 -9.4878840379 1.1928334091 1
-3.0005675554 124.8893357515 -9.4017532076 1.2219557669 1
-1.2227915525 124.8893357515 -10.1867146617 1.7530458483 1
0.5549844503 124.8893357515 -12.4683074625 0.2811923476 1
2.3327604532 124.8893357515 -12.7341703943 0.9819832999 1
4.1105364561 124.8893357515 -12.0188800752 1.6128028868 1
5.888312459 124.8893357515 -10.2878570166 0.2700484981 1
7.6660884619 124.8893357515 -10.4801987989 0.3214408942 1
9.4438644648 124.8893357515 -11.5551475879 -0.3151537145 1
11.2216404676 124.8893357515 -13.0666315137 -0.8964529307 1
12.9994164705 124.8893357515 0 -0 0
14.7771924734 124.8893357515 0 -0 0
16.5549684763 124.8893357515 0 -0 0
18.3327444792 124.8893357515 0 -0 0
20.1105204821 124.8893357515 0 -0 0
21.8882964849 124.8893357515 0 -0 0
23.6660724878 124.8893357515 0 -0 0
25.4438484907 124.8893357515 0 -0 0
27.2216244936 124.8893357515 0 -0 0
28.9994004965 124.8893357515 0 -0 0
30.7771764994 124.8893357515 0 -0 0
32.5549525023 124.8893357515 0 -0 0
34.3327285051 124.8893357515 0 -0 0
36.110504508 124.8893357515 -9.2009696503 -0.1017428159 1
37.8882805109 124.8893357515 -9.8117444367 0.722354566 1
39.6660565138 124.8893357515 -8.0703192745 1.5632118737 1
41.4438325167 124.8893357515 -5.5263426835 2.412157744 1
43.2216085196 124.8893357515 -7.0608030723 2.3277753148 1
44.9993845224 124.8893357515 -10.731191491 0.9183167748 1
46.7771605253 124.8893357515 -8.1556023951 -0.6557916997 1
48.5549365282 124.8893357515 -7.5068749424 -1.820791976 1
50.3327125311 124.8893357515 -7.3305690006 -1.566196518 1
52.110488534 124.8893357515 -9.515929098 0.4715561407 1
53.8882645369 124.8893357515 0 -0 0
-125.6671117544 123.1115597486 0 -0 0
-123.8893357515 123.1115597486 -12.2785264698 0.2168370584 1
-122.1115597486 123.1115597486 -11.2222096319 0.6393673256 1
-120.3337837458 123.1115597486 -10.8223202759 -0.0086537024 1
-118.5560077429 123.1115597486 -10.7937277366 -0.5217122936 1
-116.77823174 123.1115597486 -10.1492564926 -0.8561690628 1
-115.0004557371 123.1115597486 -10.1171671511 -1.0191059174 1
-113.2226797342 123.1115597486 -10.9181291244 -0.5384368982 1
-111.4449037313 123.1115597486 -9.6809145842 -0.8229317811 1
-109.6671277285 123.1115597486 -11.2974791825 -0.5832948659 1
-107.8893517256 123.1115597486 -11.4974150302 0.7033164206 1
-106.1115757227 123.1115597486 -10.8457205937 1.2727300414 1
-104.3337997198 123.1115597486 -11.0048250944 0.0906696089 1
-102.5560237169 123.1115597486 -8.6611022422 -0.660807315 1
-100.778247714 123.1115597486 -9.0733363696 -0.3314897854 1
-99.0004717112 123.1115597486 -10.5857916293 -0.2573328537 1
-97.2226957083 123.1115597486 -10.5626738814 -1.6591266858 1
-95.4449197054 123.1115597486 -11.6440864563 -0.8412988231 1
-93.6671437025 123.1115597486 -10.9013868593 0.3934962125 1
-91.8893676996 123.1115597486 -9.6926235734 0.4109978842 1
-90.1115916967 123.1115597486 -12.0767539179 0.2965924058 1
-88.3338156939 123.1115597486 -11.717183751 0.4043221709 1
-86.556039691 123.1115597486 -10.5218425343 -0.7758132544 1
-84.7782636881 123.1115597486 -11.5425908891 -0.7219836931 1
-83.0004876852 123.1115597486 -11.2968080791 0.314853484 1
-81.2227116823 123.1115597486 -11.1912682305 0.108012335 1
-79.4449356794 123.1115597486 -11.5785655664 1.0884944825 1
-77.6671596766 123.1115597486 -12.6708747422 0.945531786 1
-75.8893836737 123.1115597486 -11.6802024186 0.2480786903 1
-74.1116076708 123.1115597486 -9.8430390504 -0.1112265673 1
-72.3338316679 123.1115597486 -10.3642215255 0.0047153848 1
-70.556055665 123.1115597486 -11.9331201179 1.2407643242 1
-68.7782796621 123.1115597486 0 -0 0
-67.0005036592 123.1115597486 0 -0 0
-65.2227276564 123.1115597486 0 -0 0
-63.4449516535 123.1115597486 0 -0 0
-61.6671756506 123.1115597486 0 -0 0
-59.8893996477 123.1115597486 -8.7804526934 0.1330727508 1
-58.1116236448 123.1115597486 -10.535193961 -1.8581265208 1
-56.3338476419 123.1115597486 -10.1978938324 -0.6925434441 1
-54.5560716391 123.1115597486 -11.5536994173 0.0702362747 1
-52.7782956362 123.1115597486 -9.8227470012 -0.0147466154 1
-51.0005196333 123.1115597486 -10.7615324314 0.5570688493 1
-49.2227436304 123.1115597486 -12.7550982257 0.8396917069 1
-47.4449676275 123.1115597486 -12.8124952318 1.2817192956 1
-45.6671916246 123.1115597486 -10.3656873568 1.4220328995 1
-43.8894156218 123.1115597486 -10.5373485563 1.0722113934 1
-42.1116396189 123.1115597486 -11.9658982235 0.2749404891 1
-40.333863616 123.1115597486 -10.2551495535 0.2990119104 1
-38.5560876131 123.1115597486 -9.4123848992 1.6642306042 1
-36.7783116102 123.1115597486 -9.7456937282 0.7203765769 1
-35.0005356073 123.1115597486 -8.3464783462 -0.8069136013 1
-33.2227596045 123.1115597486 -8.4666588465 -1.2223089792 1
-31.4449836016 123.1115597486 -8.662126558 -0.8911017637 1
-29.6672075987 123.1115597486 -10.5121998373 1.2905319436 1
-27.8894315958 123.1115597486 -12.8155151973 -0.9213720616 1
-26.1116555929 123.1115597486 -11.0004805825 -0.9847736775 1
-24.33387959 123.1115597486 -7.3253414579 1.2971723357 1
-22.5561035872 123.1115597486 -7.5262486395 1.7193847118 1
-20.7783275843 123.1115597486 -9.4384872915 0.6326562911 1
-19.0005515814 123.1115597486 -10.3903415784 0.4115453634 1
-17.2227755785 123.1115597486 -10.1801449121 0.4952213678 1
-15.4449995756 123.1115597486 -9.6401892009 1.7221044469 1
-13.6672235727 123.1115597486 -8.786192394 2.9331459523 1
-11.8894475698 123.1115597486 -9.9899753858 1.1908554199 1
-10.111671567 123.1115597486 -13.1250528355 0.8709509994 1
-8.3338955641 123.1115597486 -13.0764684775 0.7073430414 1
-6.5561195612 123.1115597486 -9.9330905377 0.6573811552 1
-4.7783435583 123.1115597486 -9.4076518538 0.9518013051 1
-3.0005675554 123.1115597486 -10.6685316211 0.619605095 1
-1.2227915525 123.1115597486 -9.6398183279 1.0963357965 1
0.5549844503 123.1115597486 -8.2906178139 0.4180091493 1
2.3327604532 123.1115597486 -8.3628320777 0.145293898 1
4.1105364561 123.1115597486 -12.1696134433 0.8287421242 1
5.888312459 123.1115597486 -12.18983485 0.4318374126 1
7.6660884619 123.1115597486 -9.9575328319 -0.5112572082 1
9.4438644648 123.1115597486 -12.2606539251 -0.2784726125 1
11.2216404676 123.1115597486 -14.2701319356 2.2494857987 1
12.9994164705 123.1115597486 0 -0 0
14.7771924734 123.1115597486 0 -0 0
16.5549684763 123.1115597486 0 -0 0
18.3327444792 123.1115597486 0 -0 0
20.1105204821 123.1115597486 0 -0 0
21.8882964849 123.1115597486 0 -0 0
23.6660724878 123.1115597486 0 -0 0
25.4438484907 123.1115597486 0 -0 0
27.2216244936 123.1115597486 0 -0 0
28.9994004965 123.1115597486 0 -0 0
30.7771764994 123.1115597486 0 -0 0
32.5549525023 123.1115597486 0 -0 0
34.3327285051 123.1115597486 0 -0 0
36.110504508 123.1115597486 -9.9835292605 1.0823485877 1
37.8882805109 123.1115597486 -8.8724998304 2.4803277265 1
39.6660565138 123.1115597486 -8.1609182409 2.9771562105 1
41.4438325167 123.1115597486 -4.8002440667 2.6270697951 1
43.2216085196 123.1115597486 -6.4430700028 1.4126021299 1
44.9993845224 123.1115597486 -10.1772485709 0.3070474912 1
46.7771605253 123.1115597486 -7.5765460774 0.1304589795 1
48.5549365282 123.1115597486 -9.8847534283 -0.2444406031 1
50.3327125311 123.1115597486 -7.0757616151 -0.0037970327 1
52.110488534 123.1115597486 -8.1511872408 0.6109160713 1
53.8882645369 123.1115597486 0 -0 0
-125.6671117544 121.3337837458 0 -0 0
-123.8893357515 121.3337837458 -11.7396480562 -0.5238492283 1
-122.1115597486 121.3337837458 -10.6508710038 -0.5944210548 1
-120.3337837458 121.3337837458 -9.78293997 -0.5918779259 1
-118.5560077429 121.3337837458 -10.8670369587 -0.6164791657 1
-116.77823174 121.3337837458 -11.6975274841 -0.2922655546 1
-115.0004557371 121.3337837458 -11.7243009798 -0.5357171631 1
-113.2226797342 121.3337837458 -10.9693802356 -0.2519287048 1
-111.4449037313 121.3337837458 -8.8382029118 0.1624070361 1
-109.6671277285 121.3337837458 -9.1466279311 -0.0298817644 1
-107.8893517256 121.3337837458 -11.1383217 0.8356121043 1
-106.1115757227 121.3337837458 -11.6160590568 0.9427414084 1
-104.3337997198 121.3337837458 -10.5918845423 0.1384062572 1
-102.5560237169 121.3337837458 -8.9494471397 -0.3393134389 1
-100.778247714 121.3337837458 -8.5480919525 0.3130167798 1
-99.0004717112 121.3337837458 -10.8879647902 1.0954704263 1
-97.2226957083 121.3337837458 -10.1089549641 -0.3181913407 1
-95.4449197054 121.3337837458 -11.3853760745 0.1281807599 1
-93.6671437025 121.3337837458 -12.1928724762 -0.8531667578 1
-91.8893676996 121.3337837458 -10.4599244103 -2.0959090712 1
-90.1115916967 121.3337837458 -12.0695837073 0.9736121674 1
-88.3338156939 121.3337837458 -11.8407197686 1.930323124 1
-86.556039691 121.3337837458 -10.3561329628 -0.3032151373 1
-84.7782636881 121.3337837458 -10.6132538891 0.4750352823 1
-83.0004876852 121.3337837458 -12.0499451009 0.2006069511 1
-81.2227116823 121.3337837458 -10.9894250362 -0.437630095 1
-79.4449356794 121.3337837458 -9.9268740004 1.6285384968 1
-77.6671596766 121.3337837458 -11.9139760089 1.8195557328 1
-75.8893836737 121.3337837458 -11.3456043645 0.5420749853 1
-74.1116076708 121.3337837458 -8.8278361295 -0.3499804517 1
-72.3338316679 121.3337837458 -8.6833899411 -0.9891005287 1
-70.556055665 121.3337837458 -12.5220663814 0.3671818929 1
-68.7782796621 121.3337837458 0 -0 0
-67.0005036592 121.3337837458 0 -0 0
-65.2227276564 121.3337837458 0 -0 0
-63.4449516535 121.3337837458 0 -0 0
-61.6671756506 121.3337837458 0 -0 0
-59.8893996477 121.3337837458 -10.5946572592 -0.4521471224 1
-58.1116236448 121.3337837458 -9.737304935 0.1552191648 1
-56.3338476419 121.3337837458 -11.5902215738 0.7868688008 1
-54.5560716391 121.3337837458 -11.671831286 0.984102574 1
-52.7782956362 121.3337837458 -10.8348416535 0.4023265212 1
-51.0005196333 121.3337837458 -12.3042050072 -0.108241923 1
-49.2227436304 121.3337837458 -13.8975812151 -0.2276630167 1
-47.4449676275 121.3337837458 -13.4522864122 1.2880241359 1
-45.6671916246 121.3337837458 -10.1493447957 2.8421231311 1
-43.8894156218 121.3337837458 -10.6630921509 0.6048054977 1
-42.1116396189 121.3337837458 -12.4208180628 -1.9244244779 1
-40.333863616 121.3337837458 -11.2530627302 0.1149882788 1
-38.5560876131 121.3337837458 -10.6669421655 1.6019416072 1
-36.7783116102 121.3337837458 -9.3720127282 1.2343181989 1
-35.0005356073 121.3337837458 -11.3162524186 0.4005074776 1
-33.2227596045 121.3337837458 -11.6691115509 0.5288118618 1
-31.4449836016 121.3337837458 -9.9428391984 2.3192628973 1
-29.6672075987 121.3337837458 -9.7228585501 1.1667486774 1
-27.8894315958 121.3337837458 -11.4600098429 -1.4681094499 1
-26.1116555929 121.3337837458 -8.6375606394 -0.1325959142 1
-24.33387959 121.3337837458 -7.1641000225 1.8526693901 1
-22.5561035872 121.3337837458 -10.6115231486 0.9280477749 1
-20.7783275843 121.3337837458 -10.3703497597 0.2350451547 1
-19.0005515814 121.3337837458 -10.2310074898 -0.2001301145 1
-17.2227755785 121.3337837458 -10.0088192644 -0.9252573974 1
-15.4449995756 121.3337837458 -9.8505271521 0.1958915663 1
-13.6672235727 121.3337837458 -10.2326675878 2.9189644767 1
-11.8894475698 121.3337837458 -11.3739673158 1.8956376718 1
-10.111671567 121.3337837458 -13.3769108979 -0.6801810121 1
-8.3338955641 121.3337837458 -12.9526145689 -0.6863798887 1
-6.5561195612 121.3337837458 -10.2114748471 2.0663098767 1
-4.7783435583 121.3337837458 -10.9789699508 1.1289726172 1
-3.0005675554 121.3337837458 -12.8505362013 0.540891724 1
-1.2227915525 121.3337837458 -9.1529504321 1.6660143266 1
0.5549844503 121.3337837458 -8.2597117337 1.5773050462 1
2.3327604532 121.3337837458 -8.3708323374 1.7899212171 1
4.1105364561 121.3337837458 -12.1328793594 1.5885195381 1
5.888312459 121.3337837458 -14.4338105361 1.4950065699 1
7.6660884619 121.3337837458 -12.1513876863 1.4004516252 1
9.4438644648 121.3337837458 -12.13575804 1.6208914495 1
11.2216404676 121.3337837458 -14.2948567997 4.0761410996 1
12.9994164705 121.3337837458 0 -0 0
14.7771924734 121.3337837458 0 -0 0
16.5549684763 121.3337837458 0 -0 0
18.3327444792 121.3337837458 0 -0 0
20.1105204821 121.3337837458 0 -0 0
21.8882964849 121.3337837458 0 -0 0
23.6660724878 121.3337837458 0 -0 0
25.4438484907 121.3337837458 0 -0 0
27.2216244936 121.3337837458 0 -0 0
28.9994004965 121.3337837458 0 -0 0
30.7771764994 121.3337837458 0 -0 0
32.5549525023 121.3337837458 0 -0 0
34.3327285051 121.3337837458 0 -0 0
36.110504508 121.3337837458 -11.1836211832 2.1938901756 1
37.8882805109 121.3337837458 -8.7805056753 4.4367709034 1
39.6660565138 121.3337837458 -8.3117399121 3.279435335 1
41.4438325167 121.3337837458 -6.4116694254 1.9671278504 1
43.2216085196 121.3337837458 -7.9458295837 0.6266870025 1
44.9993845224 121.3337837458 -8.051563699 0.5423045733 1
46.7771605253 121.3337837458 -6.5676126755 0.913742675 1
48.5549365282 121.3337837458 -10.4134416658 -0.2427451839 1
50.3327125311 121.3337837458 -6.2064883744 0.5365825334 1
52.110488534 121.3337837458 -9.5685930586 1.0168276977 1
53.8882645369 121.3337837458 0 -0 0
-125.6671117544 119.5560077429 0 -0 0
-123.8893357515 119.5560077429 -9.4543995076 -0.452023498 1
-122.1115597486 119.5560077429 -9.4391760556 0.3821404357 1
-120.3337837458 119.5560077429 -9.9822223748 0.7134889362 1
-118.5560077429 119.5560077429 -11.066990467 0.945761374 1
-116.77823174 119.5560077429 -12.2610247981 0.7988603599 1
-115.0004557371 119.5560077429 -12.1432638024 -0.1973750582 1
-113.2226797342 119.5560077429 -10.7678902536 -0.0089539329 1
-111.4449037313 119.5560077429 -9.6595275768 0.5493864808 1
-109.6671277285 119.5560077429 -9.9032970764 1.097236488 1
-107.8893517256 119.5560077429 -11.4312053762 1.935585988 1
-106.1115757227 119.5560077429 -12.6820362523 1.0713460231 1
-104.3337997198 119.5560077429 -10.3449537921 -0.1376115295 1
-102.5560237169 119.5560077429 -9.5955078393 -0.6908303643 1
-100.778247714 119.5560077429 -10.0802917823 -0.5553734301 1
-99.0004717112 119.5560077429 -9.9443403508 0.8486103186 1
-97.2226957083 119.5560077429 -10.6243447567 1.569057538 1
-95.4449197054 119.5560077429 -12.1834946884 0.4464250824 1
-93.6671437025 119.5560077429 -13.1020763725 -1.0405459067 1
-91.8893676996 119.5560077429 -11.2866708848 -1.5749385235 1
-90.1115916967 119.5560077429 -11.755895824 0.7194405642 1
-88.3338156939 119.5560077429 -11.2293975031 1.5128261327 1
-86.556039691 119.5560077429 -11.4273906829 0.1919885699 1
-84.7782636881 119.5560077429 -12.9219027555 0.8116996286 1
-83.0004876852 119.5560077429 -13.1997219252 0.582093944 1
-81.2227116823 119.5560077429 -11.3428493082 0.8916315822 1
-79.4449356794 119.5560077429 -12.4543555749 1.9088124923 1
-77.6671596766 119.5560077429 -14.3432998728 2.0127628853 1
-75.8893836737 119.5560077429 -12.6582827221 1.081642163 1
-74.1116076708 119.5560077429 -9.6457346347 -0.344523321 1
-72.3338316679 119.5560077429 -8.8101755122 -0.8620677089 1
-70.556055665 119.5560077429 -11.764108011 -0.4124283942 1
-68.7782796621 119.5560077429 0 -0 0
-67.0005036592 119.5560077429 0 -0 0
-65.2227276564 119.5560077429 0 -0 0
-63.4449516535 119.5560077429 0 -0 0
-61.6671756506 119.5560077429 0 -0 0
-59.8893996477 119.5560077429 -11.8069173472 -0.423695868 1
-58.1116236448 119.5560077429 -11.6428502131 -0.0091658603 1
-56.3338476419 119.5560077429 -11.7706071182 0.455714567 1
-54.5560716391 119.5560077429 -11.455577028 0.7389908674 1
-52.7782956362 119.5560077429 -10.4133180414 0.9915200332 1
-51.0005196333 119.5560077429 -11.8704072661 -0.4204109932 1
-49.2227436304 119.5560077429 -13.6757638627 -1.1824313055 1
-47.4449676275 119.5560077429 -13.033076341 0.2905701353 1
-45.6671916246 119.5560077429 -11.368280597 1.6230813661 1
-43.8894156218 119.5560077429 -10.6690084577 1.0273710862 1
-42.1116396189 119.5560077429 -11.7895922817 -2.096933387 1
-40.333863616 119.5560077429 -9.751150859 -2.0142463771 1
-38.5560876131 119.5560077429 -10.7313857578 0.3368056312 1
-36.7783116102 119.5560077429 -12.8984494558 1.6485303155 1
-35.0005356073 119.5560077429 -12.9812071082 2.05467153 1
-33.2227596045 119.5560077429 -10.7897540977 2.5900001595 1
-31.4449836016 119.5560077429 -7.7254427412 2.8382201347 1
-29.6672075987 119.5560077429 -9.4582495222 1.1431011109 1
-27.8894315958 119.5560077429 -10.1204343653 -1.0283247596 1
-26.1116555929 119.5560077429 -9.4003756795 0.0933187015 1
-24.33387959 119.5560077429 -10.3370771568 2.3933138654 1
-22.5561035872 119.5560077429 -12.4176391517 1.1488761328 1
-20.7783275843 119.5560077429 -9.883799755 2.2379710762 1
-19.0005515814 119.5560077429 -11.0090813031 0.6051233888 1
-17.2227755785 119.5560077429 -12.7809886906 -1.8328718382 1
-15.4449995756 119.5560077429 -11.7513217241 -1.3893254364 1
-13.6672235727 119.5560077429 -11.9185324481 1.6859355028 1
-11.8894475698 119.5560077429 -12.3965700353 2.1444227867 1
-10.111671567 119.5560077429 -11.8777894041 -0.1357748253 1
-8.3338955641 119.5560077429 -10.2477674155 0.5463488547 1
-6.5561195612 119.5560077429 -9.0635877089 3.512714428 1
-4.7783435583 119.5560077429 -12.0149947394 2.1441402169 1
-3.0005675554 119.5560077429 -11.7393654863 1.4951125336 1
-1.2227915525 119.5560077429 -11.102382344 2.8116055845 1
0.5549844503 119.5560077429 -11.3819322541 1.6006523822 1
2.3327604532 119.5560077429 -11.2472700477 0.3651685825 1
4.1105364561 119.5560077429 -12.2266925582 0.6059534378 1
5.888312459 119.5560077429 -12.9584602332 1.7438976485 1
7.6660884619 119.5560077429 -12.6191997762 2.6965819845 1
9.4438644648 119.5560077429 -12.7956823241 3.85783821 1
11.2216404676 119.5560077429 -15.0374504331 4.6751185936 1
12.9994164705 119.5560077429 0 -0 0
14.7771924734 119.5560077429 0 -0 0
16.5549684763 119.5560077429 0 -0 0
18.3327444792 119.5560077429 0 -0 0
20.1105204821 119.5560077429 0 -0 0
21.8882964849 119.5560077429 0 -0 0
23.6660724878 119.5560077429 0 -0 0
25.4438484907 119.5560077429 0 -0 0
27.2216244936 119.5560077429 0 -0 0
28.9994004965 119.5560077429 0 -0 0
30.7771764994 119.5560077429 0 -0 0
32.5549525023 119.5560077429 0 -0 0
34.3327285051 119.5560077429 0 -0 0
36.110504508 119.5560077429 -10.7864692229 0.5910302163 1
37.8882805109 119.5560077429 -10.2539486315 1.4138030519 1
39.6660565138 119.5560077429 -7.858197601 2.1909761738 1
41.4438325167 119.5560077429 -6.7257988241 0.5542961324 1
43.2216085196 119.5560077429 -8.3211706817 0.2001301145 1
44.9993845224 119.5560077429 -8.2211232851 1.3846277122 1
46.7771605253 119.5560077429 -6.9191472615 1.3148682741 1
48.5549365282 119.5560077429 -9.2387810318 0.1128866653 1
50.3327125311 119.5560077429 -9.7231587806 -0.3588637421 1
52.110488534 119.5560077429 -11.675151482 1.6032131717 1
53.8882645369 119.5560077429 0 -0 0
-125.6671117544 117.77823174 0 -0 0
-123.8893357515 117.77823174 -10.5018683762 -0.4950800829 1
-122.1115597486 117.77823174 -11.9115035224 0.7383727458 1
-120.3337837458 117.77823174 -11.5410014335 1.3752675851 1
-118.5560077429 117.77823174 -11.1607506839 0.2287226538 1
-116.77823174 117.77823174 -10.8321749003 -0.3936198369 1
-115.0004557371 117.77823174 -10.5394148485 -0.9055658092 1
-113.2226797342 117.77823174 -11.2617517539 -0.3527178474 1
-111.4449037313 117.77823174 -10.9582540467 0.8030459261 1
-109.6671277285 117.77823174 -9.7276798986 1.4193131644 1
-107.8893517256 117.77823174 -10.160312039 2.1253493201 1
-106.1115757227 117.77823174 -12.1257621307 1.3504367572 1
-104.3337997198 117.77823174 -10.6553038187 -0.2996123713 1
-102.5560237169 117.77823174 -10.0167665421 -0.8627741336 1
-100.778247714 117.77823174 -11.714693604 -1.077580221 1
-99.0004717112 117.77823174 -11.0525794034 -0.2866494783 1
-97.2226957083 117.77823174 -11.6272382275 0.8307201133 1
-95.4449197054 117.77823174 -11.5536994173 0.5219595423 1
-93.6671437025 117.77823174 -12.9225032165 -0.1926596734 1
-91.8893676996 117.77823174 -12.8785282796 -0.034650131 1
-90.1115916967 117.77823174 -10.4122937256 0.2308772491 1
-88.3338156939 117.77823174 -9.1257707422 -0.828106342 1
-86.556039691 117.77823174 -10.8920267321 -0.921124813 1
-84.7782636881 117.77823174 -13.3871187346 -0.4975702299 1
-83.0004876852 117.77823174 -12.5139248368 -0.2380121384 1
-81.2227116823 117.77823174 -10.5702502862 0.1924654066 1
-79.4449356794 117.77823174 -12.9918034785 0.3888867914 1
-77.6671596766 117.77823174 -15.0489474949 0.2334027173 1
-75.8893836737 117.77823174 -13.6456348497 0.3914475809 1
-74.1116076708 117.77823174 -11.7957734977 0.305440375 1
-72.3338316679 117.77823174 -10.1012372743 -0.7998846757 1
-70.556055665 117.77823174 -11.0115184683 -0.9529315846 1
-68.7782796621 117.77823174 0 -0 0
-67.0005036592 117.77823174 0 -0 0
-65.2227276564 117.77823174 0 -0 0
-63.4449516535 117.77823174 0 -0 0
-61.6671756506 117.77823174 -11.1368382082 3.5059680722 1
-59.8893996477 117.77823174 -11.7129098817 -0.225667367 1
-58.1116236448 117.77823174 -13.1483825109 -1.142129777 1
-56.3338476419 117.77823174 -12.6518895786 0.1678111849 1
-54.5560716391 117.77823174 -12.6131421844 0.9731000095 1
-52.7782956362 117.77823174 -11.1343304005 0.7104336494 1
-51.0005196333 117.77823174 -11.3974206154 -0.5230721612 1
-49.2227436304 117.77823174 -11.0729950769 -0.9501588677 1
-47.4449676275 117.77823174 -11.5363390306 0.1578859181 1
-45.6671916246 117.77823174 -12.5238147825 0.9964650061 1
-43.8894156218 117.77823174 -12.3692137392 1.1456442398 1
-42.1116396189 117.77823174 -11.4538462875 -1.7197379242 1
-40.333863616 117.77823174 -7.997999047 -3.0530968646 1
-38.5560876131 117.77823174 -9.9868671171 0.2013310364 1
-36.7783116102 117.77823174 -12.8009098668 2.3953801576 1
-35.0005356073 117.77823174 -11.2628290515 3.2807775419 1
-33.2227596045 117.77823174 -9.2491654748 2.4331738785 1
-31.4449836016 117.77823174 -9.7306822036 1.4112952442 1
-29.6672075987 117.77823174 -11.7485666679 2.9680609926 1
-27.8894315958 117.77823174 -11.4835161244 3.0864224493 1
-26.1116555929 117.77823174 -10.9868819073 1.6547468528 1
-24.33387959 117.77823174 -11.1093406272 1.0956823537 1
-22.5561035872 117.77823174 -9.7290221056 1.2405700574 1
-20.7783275843 117.77823174 -9.8070643731 1.6644601922 1
-19.0005515814 117.77823174 -11.5997936283 0.7582232796 1
-17.2227755785 117.77823174 -11.2118428496 -0.1675462757 1
-15.4449995756 117.77823174 -9.688031813 -0.694856985 1
-13.6672235727 117.77823174 -10.6657412435 0.3057935874 1
-11.8894475698 117.77823174 -10.9174050391 1.8840699675 1
-10.111671567 117.77823174 -11.7050685676 1.0358305219 1