TITLE = "B00005"
VARIABLES = "x", "y", "Vx", "Vy", "isValid"
ZONE T="Frame 0", I=102, J=78, F=POINT
-125.6671117544 126.6671117544 0 -0 0
-123.8893357515 126.6671117544 0 -0 0
-122.1115597486 126.6671117544 0 -0 0
-120.3337837458 126.6671117544 0 -0 0
-118.5560077429 126.6671117544 0 -0 0
-116.77823174 126.6671117544 0 -0 0
-115.0004557371 126.6671117544 0 -0 0
-113.2226797342 126.6671117544 0 -0 0
-111.4449037313 126.6671117544 0 -0 0
-109.6671277285 126.6671117544 0 -0 0
-107.8893517256 126.6671117544 0 -0 0
-106.1115757227 126.6671117544 0 -0 0
-104.3337997198 126.6671117544 0 -0 0
-102.5560237169 126.6671117544 0 -0 0
-100.778247714 126.6671117544 0 -0 0
-99.0004717112 126.6671117544 0 -0 0
-97.2226957083 126.6671117544 0 -0 0
-95.4449197054 126.6671117544 0 -0 0
-93.6671437025 126.6671117544 0 -0 0
-91.8893676996 126.6671117544 0 -0 0
-90.1115916967 126.6671117544 0 -0 0
-88.3338156939 126.6671117544 0 -0 0
-86.556039691 126.6671117544 0 -0 0
-84.7782636881 126.6671117544 0 -0 0
-83.0004876852 126.6671117544 0 -0 0
-81.2227116823 126.6671117544 0 -0 0
-79.4449356794 126.6671117544 0 -0 0
-77.6671596766 126.6671117544 0 -0 0
-75.8893836737 126.6671117544 0 -0 0
-74.1116076708 126.6671117544 0 -0 0
-72.3338316679 126.6671117544 0 -0 0
-70.556055665 126.6671117544 0 -0 0
-68.7782796621 126.6671117544 0 -0 0
-67.0005036592 126.6671117544 0 -0 0
-65.2227276564 126.6671117544 0 -0 0
-63.4449516535 126.6671117544 0 -0 0
-61.6671756506 126.6671117544 0 -0 0
-59.8893996477 126.6671117544 0 -0 0
-58.1116236448 126.6671117544 0 -0 0
-56.3338476419 126.6671117544 0 -0 0
-54.5560716391 126.6671117544 0 -0 0
-52.7782956362 126.6671117544 0 -0 0
-51.0005196333 126.6671117544 0 -0 0
-49.2227436304 126.6671117544 0 -0 0
-47.4449676275 126.6671117544 0 -0 0
-45.6671916246 126.6671117544 0 -0 0
-43.8894156218 126.6671117544 0 -0 0
-42.1116396189 126.6671117544 0 -0 0
-40.333863616 126.6671117544 0 -0 0
-38.5560876131 126.6671117544 0 -0 0
-36.7783116102 126.6671117544 0 -0 0
-35.0005356073 126.6671117544 0 -0 0
-33.2227596045 126.6671117544 0 -0 0
-31.4449836016 126.6671117544 0 -0 0
-29.6672075987 126.6671117544 0 -0 0
-27.8894315958 126.6671117544 0 -0 0
-26.1116555929 126.6671117544 0 -0 0
-24.33387959 126.6671117544 0 -0 0
-22.5561035872 126.6671117544 0 -0 0
-20.7783275843 126.6671117544 0 -0 0
-19.0005515814 126.6671117544 0 -0 0
-17.2227755785 126.6671117544 0 -0 0
-15.4449995756 126.6671117544 0 -0 0
-13.6672235727 126.6671117544 0 -0 0
-11.8894475698 126.6671117544 0 -0 0
-10.111671567 126.6671117544 0 -0 0
-8.3338955641 126.6671117544 0 -0 0
-6.5561195612 126.6671117544 0 -0 0
-4.7783435583 126.6671117544 0 -0 0
-3.0005675554 126.6671117544 0 -0 0
-1.2227915525 126.6671117544 0 -0 0
0.5549844503 126.6671117544 0 -0 0
2.3327604532 126.6671117544 0 -0 0
4.1105364561 126.6671117544 0 -0 0
5.888312459 126.6671117544 0 -0 0
7.6660884619 126.6671117544 0 -0 0
9.4438644648 126.6671117544 0 -0 0
11.2216404676 126.6671117544 0 -0 0
12.9994164705 126.6671117544 0 -0 0
14.7771924734 126.6671117544 0 -0 0
16.5549684763 126.6671117544 0 -0 0
18.3327444792 126.6671117544 0 -0 0
20.1105204821 126.6671117544 0 -0 0
21.8882964849 126.6671117544 0 -0 0
23.6660724878 126.6671117544 0 -0 0
25.4438484907 126.6671117544 0 -0 0
27.2216244936 126.6671117544 0 -0 0
28.9994004965 126.6671117544 0 -0 0
30.7771764994 126.6671117544 0 -0 0
32.5549525023 126.6671117544 0 -0 0
34.3327285051 126.6671117544 0 -0 0
36.110504508 126.6671117544 0 -0 0
37.8882805109 126.6671117544 0 -0 0
39.6660565138 126.6671117544 0 -0 0
41.4438325167 126.6671117544 0 -0 0
43.2216085196 126.6671117544 0 -0 0
44.9993845224 126.6671117544 0 -0 0
46.7771605253 126.6671117544 0 -0 0
48.5549365282 126.6671117544 0 -0 0
50.3327125311 126.6671117544 0 -0 0
52.110488534 126.6671117544 0 -0 0
53.8882645369 126.6671117544 0 -0 0
-125.6671117544 124.8893357515 0 -0 0
-123.8893357515 124.8893357515 -8.7412637838 -0.0769826305 1
-122.1115597486 124.8893357515 -10.9231977215 -0.29985962 1
-120.3337837458 124.8893357515 -11.4161585303 0.1170192498 1
-118.5560077429 124.8893357515 -11.0759973818 0.3036389921 1
-116.77823174 124.8893357515 -11.2921456761 0.6256450261 1
-115.0004557371 124.8893357515 -11.3642009944 1.242618689 1
-113.2226797342 124.8893357515 -11.1743493592 0.9134247838 1
-111.4449037313 124.8893357515 -10.9879238837 -0.3312601974 1
-109.6671277285 124.8893357515 -10.1584753348 -0.5329267856 1
-107.8893517256 124.8893357515 -10.975314203 0.7194582248 1
-106.1115757227 124.8893357515 -11.7413787966 1.1820074507 1
-104.3337997198 124.8893357515 -12.3000724228 -0.2045629294 1
-102.5560237169 124.8893357515 -11.8497796652 -0.3541483573 1
-100.778247714 124.8893357515 -9.6366040956 0.0716844453 1
-99.0004717112 124.8893357515 -10.5741003007 -0.4971463751 1
-97.2226957083 124.8893357515 -11.1314163987 -0.8930444316 1
-95.4449197054 124.8893357515 -10.6229848892 0.2842123131 1
-93.6671437025 124.8893357515 -9.9723324292 0.7093210305 1
-91.8893676996 124.8893357515 -11.18667647 -0.4852784403 1
-90.1115916967 124.8893357515 -10.3577577396 0.5522298402 1
-88.3338156939 124.8893357515 -10.4189517783 1.3672320042 1
-86.556039691 124.8893357515 -11.1782700162 -0.4644565726 1
-84.7782636881 124.8893357515 -11.5135921556 -0.9077380651 1
-83.0004876852 124.8893357515 -11.6297283745 -0.1806857749 1
-81.2227116823 124.8893357515 -10.7520486799 -0.9383968966 1
-79.4449356794 124.8893357515 -10.1663872913 -0.6176447664 1
-77.6671596766 124.8893357515 -11.2374860658 0.5855554249 1
-75.8893836737 124.8893357515 -11.3623996115 0.9197472848 1
-74.1116076708 124.8893357515 -12.4019918448 1.013772411 1
-72.3338316679 124.8893357515 -12.8453086586 0.3946618133 1
-70.556055665 124.8893357515 -11.0037477967 0.3277104134 1
-68.7782796621 124.8893357515 0 -0 0
-67.0005036592 124.8893357515 0 -0 0
-65.2227276564 124.8893357515 0 -0 0
-63.4449516535 124.8893357515 0 -0 0
-61.6671756506 124.8893357515 0 -0 0
-59.8893996477 124.8893357515 -11.9550722652 0.1331787145 1
-58.1116236448 124.8893357515 -12.4518830885 0.729136243 1
-56.3338476419 124.8893357515 -10.9039476488 0.0430565848 1
-54.5560716391 124.8893357515 -11.9683177281 1.289913822 1
-52.7782956362 124.8893357515 -12.3142009166 1.6285914786 1
-51.0005196333 124.8893357515 -10.910535059 0.6855851609 1
-49.2227436304 124.8893357515 -9.7801849137 -0.8517362479 1
-47.4449676275 124.8893357515 -11.7933539932 -0.2709491896 1
-45.6671916246 124.8893357515 -14.8150856015 1.6949070963 1
-43.8894156218 124.8893357515 -14.502192446 1.5680508828 1
-42.1116396189 124.8893357515 -14.6658533859 1.2537978598 1
-40.333863616 124.8893357515 -13.4456283595 1.9481956687 1
-38.5560876131 124.8893357515 -11.9024083046 1.9098368081 1
-36.7783116102 124.8893357515 -10.700002841 1.5474409425 1
-35.0005356073 124.8893357515 -11.3976855247 2.7947043738 1
-33.2227596045 124.8893357515 -10.9659717365 3.7678220439 1
-31.4449836016 124.8893357515 -11.5185194678 1.7294512637 1
-29.6672075987 124.8893357515 -13.5611111356 1.9025782944 1
-27.8894315958 124.8893357515 -11.7694238568 2.6098330327 1
-26.1116555929 124.8893357515 -10.2498337077 3.2258883435 1
-24.33387959 124.8893357515 -8.8673605908 3.4182831077 1
-22.5561035872 124.8893357515 -8.520894602 3.1022993442 1
-20.7783275843 124.8893357515 -7.9389596036 3.0836850536 1
-19.0005515814 124.8893357515 -8.4111691871 0.4985768851 1
-17.2227755785 124.8893357515 -9.0899196892 -0.9637752036 1
-15.4449995756 124.8893357515 -11.2966314729 0.3034800465 1
-13.6672235727 124.8893357515 -13.299575055 -0.0744395016 1
-11.8894475698 124.8893357515 -10.8229207369 1.8501615824 1
-10.111671567 124.8893357515 -9.7737211278 3.3965252272 1
-8.3338955641 124.8893357515 -11.320067112 1.8179486166 1
-6.5561195612 124.8893357515 -10.5779856365 1.6284855149 1
-4.7783435583 124.8893357515 -10.3529717124 1.1786519334 1
-3.0005675554 124.8893357515 -8.0706548263 -0.562437677 1
-1.2227915525 124.8893357515 -8.5001610373 -1.7607988592 1
0.5549844503 124.8893357515 -11.1202902098 -0.0547832347 1
2.3327604532 124.8893357515 -11.7182610487 1.8440510089 1
4.1105364561 124.8893357515 -10.4454780254 1.3615276249 1
5.888312459 124.8893357515 -9.4324120392 0.3474373228 1
7.6660884619 124.8893357515 -10.7044886377 0.4262213363 1
9.4438644648 124.8893357515 -12.6907076153 0.8243799518 1
11.2216404676 124.8893357515 -9.3271900817 5.0599081218 1
12.9994164705 124.8893357515 0 -0 0
14.7771924734 124.8893357515 0 -0 0
16.5549684763 124.8893357515 0 -0 0
18.3327444792 124.8893357515 0 -0 0
20.1105204821 124.8893357515 0 -0 0
21.8882964849 124.8893357515 0 -0 0
23.6660724878 124.8893357515 0 -0 0
25.4438484907 124.8893357515 0 -0 0
27.2216244936 124.8893357515 0 -0 0
28.9994004965 124.8893357515 0 -0 0
30.7771764994 124.8893357515 0 -0 0
32.5549525023 124.8893357515 0 -0 0
34.3327285051 124.8893357515 0 -0 0
36.110504508 124.8893357515 -9.8943431435 1.0245100662 1
37.8882805109 124.8893357515 -5.8940014131 0.3186328561 1
39.6660565138 124.8893357515 -9.5119201379 -0.6324620243 1
41.4438325167 124.8893357515 -12.9989030466 -0.097398304 1
43.2216085196 124.8893357515 -10.0544719599 2.2522938368 1
44.9993845224 124.8893357515 -9.1587784358 2.8320389187 1
46.7771605253 124.8893357515 -10.150298469 1.952840411 1
48.5549365282 124.8893357515 -11.5667859347 1.4330884459 1
50.3327125311 124.8893357515 -9.2592850084 1.3153451108 1
52.110488534 124.8893357515 -7.0255348197 2.5450892099 1
53.8882645369 124.8893357515 0 -0 0
-125.6671117544 123.1115597486 0 -0 0
-123.8893357515 123.1115597486 -10.2129759996 0.3966927843 1
-122.1115597486 123.1115597486 -10.3796215838 -0.3693011669 1
-120.3337837458 123.1115597486 -9.7337374904 -1.3434961347 1
-118.5560077429 123.1115597486 -10.0245195531 -0.6157197592 1
-116.77823174 123.1115597486 -10.7535498324 0.4088786101 1
-115.0004557371 123.1115597486 -10.4731522126 1.4731250652 1
-113.2226797342 123.1115597486 -10.2614367332 1.2604559124 1
-111.4449037313 123.1115597486 -10.7265820699 0.3649213339 1
-109.6671277285 123.1115597486 -10.589359074 -0.3363111339 1
-107.8893517256 123.1115597486 -11.2753504291 -0.7009852192 1
-106.1115757227 123.1115597486 -13.1952891103 -0.8621913333 1
-104.3337997198 123.1115597486 -11.8760586637 -1.7587678883 1
-102.5560237169 123.1115597486 -9.4632651375 -2.3827351557 1
-100.778247714 123.1115597486 -8.6270878934 -1.7274732745 1
-99.0004717112 123.1115597486 -10.726670373 -0.6082669787 1
-97.2226957083 123.1115597486 -10.589359074 -0.5688838023 1
-95.4449197054 123.1115597486 -10.5990194316 -0.8508708776 1
-93.6671437025 123.1115597486 -10.7317389701 -0.6833246019 1
-91.8893676996 123.1115597486 -10.463262267 -0.6653990754 1
-90.1115916967 123.1115597486 -10.654138218 -0.2434339479 1
-88.3338156939 123.1115597486 -11.4467820406 0.3838535155 1
-86.556039691 123.1115597486 -12.0179087413 -0.0620770696 1
-84.7782636881 123.1115597486 -11.2836685799 -0.6328328973 1
-83.0004876852 123.1115597486 -9.8783249636 -0.8044234543 1
-81.2227116823 123.1115597486 -9.4878133954 -0.8853267418 1
-79.4449356794 123.1115597486 -9.8202568542 -0.0398600131 1
-77.6671596766 123.1115597486 -10.3775199703 1.9101370386 1
-75.8893836737 123.1115597486 -10.5497109883 1.6685751161 1
-74.1116076708 123.1115597486 -11.8094957973 0.2830996942 1
-72.3338316679 123.1115597486 -12.6338051066 -0.8323802114 1
-70.556055665 123.1115597486 -12.6117293351 -1.0246866724 1
-68.7782796621 123.1115597486 0 -0 0
-67.0005036592 123.1115597486 0 -0 0
-65.2227276564 123.1115597486 0 -0 0
-63.4449516535 123.1115597486 0 -0 0
-61.6671756506 123.1115597486 0 -0 0
-59.8893996477 123.1115597486 -11.4703942858 2.7552682156 1
-58.1116236448 123.1115597486 -11.7890448026 -0.9001439997 1
-56.3338476419 123.1115597486 -10.7028285397 0.63949095 1
-54.5560716391 123.1115597486 -11.7950140912 2.7167327488 1
-52.7782956362 123.1115597486 -12.6117293351 2.0433687349 1
-51.0005196333 123.1115597486 -12.0344920608 0.0643552892 1
-49.2227436304 123.1115597486 -11.2760921751 -1.487341862 1
-47.4449676275 123.1115597486 -12.2468963043 -1.8539232939 1
-45.6671916246 123.1115597486 -13.0318930796 0.0453171438 1
-43.8894156218 123.1115597486 -12.3612311402 0.4996188615 1
-42.1116396189 123.1115597486 -13.0401052666 1.5304337681 1
-40.333863616 123.1115597486 -11.2740435435 1.8435741722 1
-38.5560876131 123.1115597486 -8.7786689711 0.4269630822 1
-36.7783116102 123.1115597486 -8.6405982656 1.2900374463 1
-35.0005356073 123.1115597486 -10.5104867574 1.7102718333 1
-33.2227596045 123.1115597486 -10.6799933616 1.2843330669 1
-31.4449836016 123.1115597486 -10.489329338 1.6602922866 1
-29.6672075987 123.1115597486 -13.5216573167 3.6665384041 1
-27.8894315958 123.1115597486 -13.885819244 2.7520893045 1
-26.1116555929 123.1115597486 -11.1880010163 1.0900662774 1
-24.33387959 123.1115597486 -9.6707420687 -0.3664578076 1
-22.5561035872 123.1115597486 -7.3510906378 2.0924475902 1
-20.7783275843 123.1115597486 -8.2526474868 3.1766505427 1
-19.0005515814 123.1115597486 -9.505597637 0.29842911 1
-17.2227755785 123.1115597486 -9.1758209314 -0.8724698125 1
-15.4449995756 123.1115597486 -9.2311339846 -0.1285339722 1
-13.6672235727 123.1115597486 -12.5469325304 1.1619273289 1
-11.8894475698 123.1115597486 -11.861877188 2.9459322392 1
-10.111671567 123.1115597486 -11.0677498736 3.5895557736 1
-8.3338955641 123.1115597486 -11.4020830184 1.0064432548 1
-6.5561195612 123.1115597486 -10.1945736364 0.2309832128 1
-4.7783435583 123.1115597486 -9.6029429591 2.2096611068 1
-3.0005675554 123.1115597486 -8.9103641938 0.7939507083 1
-1.2227915525 123.1115597486 -10.9876942957 -1.0132602531 1
0.5549844503 123.1115597486 -13.1488770082 -0.7129237964 1
2.3327604532 123.1115597486 -12.588293696 0.8483807306 1
4.1105364561 123.1115597486 -11.614893456 1.1567880893 1
5.888312459 123.1115597486 -8.7290602973 0.8861214696 1
7.6660884619 123.1115597486 -10.5781092608 1.3698810968 1
9.4438644648 123.1115597486 -14.3965113125 2.7377665439 1
11.2216404676 123.1115597486 -10.1989181482 2.3707435966 1
12.9994164705 123.1115597486 0 -0 0
14.7771924734 123.1115597486 0 -0 0
16.5549684763 123.1115597486 0 -0 0
18.3327444792 123.1115597486 0 -0 0
20.1105204821 123.1115597486 0 -0 0
21.8882964849 123.1115597486 0 -0 0
23.6660724878 123.1115597486 0 -0 0
25.4438484907 123.1115597486 0 -0 0
27.2216244936 123.1115597486 0 -0 0
28.9994004965 123.1115597486 0 -0 0
30.7771764994 123.1115597486 0 -0 0
32.5549525023 123.1115597486 0 -0 0
34.3327285051 123.1115597486 0 -0 0
36.110504508 123.1115597486 -8.1459596981 0.1226706473 1
37.8882805109 123.1115597486 -6.9499650386 1.3336591709 1
39.6660565138 123.1115597486 -8.3797156278 0.2198746845 1
41.4438325167 123.1115597486 -10.7629982626 -0.822525587 1
43.2216085196 123.1115597486 -10.6553568006 1.2350952661 1
44.9993845224 123.1115597486 -9.056894335 2.3440054221 1
46.7771605253 123.1115597486 -8.1556377164 1.1291315627 1
48.5549365282 123.1115597486 -7.5530927777 1.2826906295 1
50.3327125311 123.1115597486 -5.9468596404 0.7451367622 1
52.110488534 123.1115597486 -6.8451316147 -0.2188503687 1
53.8882645369 123.1115597486 0 -0 0
-125.6671117544 121.3337837458 0 -0 0
-123.8893357515 121.3337837458 -10.5301430244 0.7765196791 1
-122.1115597486 121.3337837458 -9.5203265917 -0.8231966904 1
-120.3337837458 121.3337837458 -9.591092685 -1.5898970663 1
-118.5560077429 121.3337837458 -9.80125403 -0.1213284404 1
-116.77823174 121.3337837458 -11.1764862939 0.6946627182 1
-115.0004557371 121.3337837458 -11.004613167 0.2779781152 1
-113.2226797342 121.3337837458 -9.9819574656 -0.2565557865 1
-111.4449037313 121.3337837458 -10.2434229037 -0.3409735369 1
-109.6671277285 121.3337837458 -10.1324789062 -0.9355358766 1
-107.8893517256 121.3337837458 -9.9675993837 -1.0998149381 1
-106.1115757227 121.3337837458 -11.1266833533 -0.5750650183 1
-104.3337997198 121.3337837458 -10.5529958631 -1.4442852772 1
-102.5560237169 121.3337837458 -8.4359470331 -2.6567219714 1
-100.778247714 121.3337837458 -9.2933876603 -1.8617999292 1
-99.0004717112 121.3337837458 -10.4766666754 -0.5414568637 1
-97.2226957083 121.3337837458 -11.0387688007 -1.0022753491 1
-95.4449197054 121.3337837458 -10.9185706398 -1.9403543546 1
-93.6671437025 121.3337837458 -10.7063783238 -1.0943578074 1
-91.8893676996 121.3337837458 -10.2549376261 0.1531175514 1
-90.1115916967 121.3337837458 -10.1988121845 0.1631134608 1
-88.3338156939 121.3337837458 -12.8840383922 -0.2910116507 1
-86.556039691 121.3337837458 -13.5755045386 0.0194443396 1
-84.7782636881 121.3337837458 -12.1926605488 0.2039624684 1
-83.0004876852 121.3337837458 -10.5301253638 -1.1109234663 1
-81.2227116823 121.3337837458 -9.6623709361 -0.7306020743 1
-79.4449356794 121.3337837458 -10.1130345666 1.539016828 1
-77.6671596766 121.3337837458 -10.9990677332 2.3983648019 1
-75.8893836737 121.3337837458 -11.2384573997 1.8807674321 1
-74.1116076708 121.3337837458 -11.8045684851 0.4303362601 1
-72.3338316679 121.3337837458 -12.1734634578 -0.217684768 1
-70.556055665 121.3337837458 -12.3928789663 -0.1826990853 1
-68.7782796621 121.3337837458 0 -0 0
-67.0005036592 121.3337837458 0 -0 0
-65.2227276564 121.3337837458 0 -0 0
-63.4449516535 121.3337837458 0 -0 0
-61.6671756506 121.3337837458 0 -0 0
-59.8893996477 121.3337837458 -9.9927657633 1.7959788088 1
-58.1116236448 121.3337837458 -10.1274279697 -0.2929013368 1
-56.3338476419 121.3337837458 -9.352692013 0.330447809 1
-54.5560716391 121.3337837458 -10.9582363861 0.8156556068 1
-52.7782956362 121.3337837458 -12.1039512684 0.4182740585 1
-51.0005196333 121.3337837458 -12.3606836611 0.6125938299 1
-49.2227436304 121.3337837458 -12.2949331832 0.9333459601 1
-47.4449676275 121.3337837458 -11.0773925706 1.0006505724 1
-45.6671916246 121.3337837458 -12.6160032044 0.0736800951 1
-43.8894156218 121.3337837458 -12.0368409229 -0.4513170734 1
-42.1116396189 121.3337837458 -9.6633599307 0.773340768 1
-40.333863616 121.3337837458 -8.5609665425 0.9638988279 1
-38.5560876131 121.3337837458 -5.4037956606 0.0383058788 1
-36.7783116102 121.3337837458 -7.8863662855 1.6002285274 1
-35.0005356073 121.3337837458 -11.166331439 1.6861297696 1
-33.2227596045 121.3337837458 -10.8287840618 0.4715031589 1
-31.4449836016 121.3337837458 -11.1430724061 2.9249514259 1
-29.6672075987 121.3337837458 -16.1186510806 3.7828335686 1
-27.8894315958 121.3337837458 -13.7767296114 1.4885781052 1
-26.1116555929 121.3337837458 -7.3657666107 0.1438457274 1
-24.33387959 121.3337837458 -8.9174637619 -2.5569218234 1
-22.5561035872 121.3337837458 -15.5469592402 -3.04352481 1
-20.7783275843 121.3337837458 -13.1571774983 0.3641442667 1
-19.0005515814 121.3337837458 -11.8223174054 0.1761999781 1
-17.2227755785 121.3337837458 -10.5212244127 0.541121312 1
-15.4449995756 121.3337837458 -8.9037944442 2.0454703484 1
-13.6672235727 121.3337837458 -10.7901249707 1.7477476631 1
-11.8894475698 121.3337837458 -10.6046001867 2.3239606215 1
-10.111671567 121.3337837458 -11.1000158213 2.6222661072 1
-8.3338955641 121.3337837458 -11.0434665249 1.2947351705 1
-6.5561195612 121.3337837458 -10.0249963897 1.0368195164 1
-4.7783435583 121.3337837458 -7.736021451 -0.0233120147 1
-3.0005675554 121.3337837458 -8.442781692 -0.7893412872 1
-1.2227915525 121.3337837458 -11.4494487938 -0.2897400863 1
0.5549844503 121.3337837458 -13.1644889938 -0.057767879 1
2.3327604532 121.3337837458 -11.7617944702 1.7135213869 1
4.1105364561 121.3337837458 -11.7442751379 0.9046121358 1
5.888312459 121.3337837458 -9.9982052334 0.8667830937 1
7.6660884619 121.3337837458 -8.2588816847 1.2311746091 1
9.4438644648 121.3337837458 -10.1709437305 1.4817081251 1
11.2216404676 121.3337837458 -9.8032143585 0.8364774746 1
12.9994164705 121.3337837458 0 -0 0
14.7771924734 121.3337837458 0 -0 0
16.5549684763 121.3337837458 0 -0 0
18.3327444792 121.3337837458 0 -0 0
20.1105204821 121.3337837458 0 -0 0
21.8882964849 121.3337837458 0 -0 0
23.6660724878 121.3337837458 0 -0 0
25.4438484907 121.3337837458 0 -0 0
27.2216244936 121.3337837458 0 -0 0
28.9994004965 121.3337837458 0 -0 0
30.7771764994 121.3337837458 0 -0 0
32.5549525023 121.3337837458 0 -0 0
34.3327285051 121.3337837458 0 -0 0
36.110504508 121.3337837458 -9.4195374492 0.1126394167 1
37.8882805109 121.3337837458 -9.0446378666 2.4699962654 1
39.6660565138 121.3337837458 -8.9836557553 1.0192295417 1
41.4438325167 121.3337837458 -7.6077347274 -2.0578151198 1
43.2216085196 121.3337837458 -7.9640553407 -0.7809878152 1
44.9993845224 121.3337837458 -9.0677026327 3.9253017678 1
46.7771605253 121.3337837458 -8.9778983941 1.5650838991 1
48.5549365282 121.3337837458 -7.543202832 0.9163564463 1
50.3327125311 121.3337837458 -6.410026988 0.8904306602 1
52.110488534 121.3337837458 -8.340720985 -1.9194618444 1
53.8882645369 121.3337837458 0 -0 0
-125.6671117544 119.5560077429 0 -0 0
-123.8893357515 119.5560077429 -11.2309869586 0.0816097122 1
-122.1115597486 119.5560077429 -10.3843193079 -0.4334092075 1
-120.3337837458 119.5560077429 -10.7283657922 0.1435101756 1
-118.5560077429 119.5560077429 -11.5016359177 1.7184133779 1
-116.77823174 119.5560077429 -11.6778182352 1.3409000239 1
-115.0004557371 119.5560077429 -11.3325178471 -0.5561858185 1
-113.2226797342 119.5560077429 -10.3150013853 -1.6455456712 1
-111.4449037313 119.5560077429 -10.4657170928 -0.626386772 1
-109.6671277285 119.5560077429 -9.8861132958 -0.6903182064 1
-107.8893517256 119.5560077429 -8.8804294476 -0.9989374925 1
-106.1115757227 119.5560077429 -9.8423502863 -0.4917952081 1
-104.3337997198 119.5560077429 -10.8776509897 -0.5916483379 1
-102.5560237169 119.5560077429 -11.1230805874 -0.3698663067 1
-100.778247714 119.5560077429 -10.5828599669 -0.9325159111 1
-99.0004717112 119.5560077429 -10.2317315751 -0.4373475251 1
-97.2226957083 119.5560077429 -11.8954147001 -0.4230424252 1
-95.4449197054 119.5560077429 -11.1611745387 -1.4142445673 1
-93.6671437025 119.5560077429 -10.3591176072 -1.3414475031 1
-91.8893676996 119.5560077429 -11.811632732 -0.8436830064 1
-90.1115916967 119.5560077429 -11.7701302815 0.0673575941 1
-88.3338156939 119.5560077429 -12.9910617326 0.6856381428 1
-86.556039691 119.5560077429 -13.7305824185 0.0319657172 1
-84.7782636881 119.5560077429 -13.3477355582 -0.8605488959 1
-83.0004876852 119.5560077429 -11.9844065504 -0.562208089 1
-81.2227116823 119.5560077429 -11.1459687473 -0.2050750873 1
-79.4449356794 119.5560077429 -10.6736355394 0.699148515 1
-77.6671596766 119.5560077429 -10.2556617114 1.0646526492 1
-75.8893836737 119.5560077429 -11.0337885066 0.7184868908 1
-74.1116076708 119.5560077429 -11.4923464331 1.0761143898 1
-72.3338316679 119.5560077429 -11.3129498832 0.7142660033 1
-70.556055665 119.5560077429 -11.4414661948 0.6728695165 1
-68.7782796621 119.5560077429 0 -0 0
-67.0005036592 119.5560077429 0 -0 0
-65.2227276564 119.5560077429 0 -0 0
-63.4449516535 119.5560077429 0 -0 0
-61.6671756506 119.5560077429 0 -0 0
-59.8893996477 119.5560077429 -9.5633655159 -0.3261209578 1
-58.1116236448 119.5560077429 -8.8962003788 0.8790572227 1
-56.3338476419 119.5560077429 -9.7200328514 -0.0205746191 1
-54.5560716391 119.5560077429 -11.6849001427 -0.8113817375 1
-52.7782956362 119.5560077429 -12.3405858787 -1.4368148361 1
-51.0005196333 119.5560077429 -12.7976073314 -0.0613353236 1
-49.2227436304 119.5560077429 -10.4424757205 1.6424374026 1
-47.4449676275 119.5560077429 -9.2889018635 2.0967921021 1
-45.6671916246 119.5560077429 -11.9253847676 1.8141162627 1
-43.8894156218 119.5560077429 -11.8497973258 0.2190093143 1
-42.1116396189 119.5560077429 -9.4903035424 -0.4776667143 1
-40.333863616 119.5560077429 -10.0132520793 -0.2171726101 1
-38.5560876131 119.5560077429 -8.0593873525 0.3088665348 1
-36.7783116102 119.5560077429 -7.9758879542 0.2242721782 1
-35.0005356073 119.5560077429 -11.9847421021 -0.5405914935 1
-33.2227596045 119.5560077429 -12.4736409689 -0.6579816162 1
-31.4449836016 119.5560077429 -12.2064358302 1.3651480514 1
-29.6672075987 119.5560077429 -13.8337910656 1.11675147 1
-27.8894315958 119.5560077429 -10.2925724014 1.0417115074 1
-26.1116555929 119.5560077429 -6.8561871611 0.6066951838 1
-24.33387959 119.5560077429 -8.6306023562 -1.1018459091 1
-22.5561035872 119.5560077429 -14.2126996084 -2.1585689411 1
-20.7783275843 119.5560077429 -12.1489505211 -0.9239505117 1
-19.0005515814 119.5560077429 -9.2839392301 0.7555565264 1
-17.2227755785 119.5560077429 -11.0766155034 2.2860785976 1
-15.4449995756 119.5560077429 -13.5509916019 2.879916852 1
-13.6672235727 119.5560077429 -10.8306031054 2.3326319846 1
-11.8894475698 119.5560077429 -9.8149763296 2.4588524159 1
-10.111671567 119.5560077429 -9.0298382694 1.7557302621 1
-8.3338955641 119.5560077429 -8.6518127575 1.642878918 1
-6.5561195612 119.5560077429 -10.502804389 1.6039019358 1
-4.7783435583 119.5560077429 -7.5280853437 -1.1658833072 1
-3.0005675554 119.5560077429 -7.2855344266 -1.2762268436 1
-1.2227915525 119.5560077429 -9.6544766402 0.5792505846 1
0.5549844503 119.5560077429 -12.3025272486 0.1077474257 1
2.3327604532 119.5560077429 -13.3067805868 0.9611967535 1
4.1105364561 119.5560077429 -13.0209788182 -0.0347031129 1
5.888312459 119.5560077429 -12.5517362183 -0.7067955622 1
7.6660884619 119.5560077429 -9.2483354257 -0.7254804953 1
9.4438644648 119.5560077429 -9.7803615199 -0.8654585474 1
11.2216404676 119.5560077429 -11.4043259168 -0.9764555267 1
12.9994164705 119.5560077429 0 -0 0
14.7771924734 119.5560077429 0 -0 0
16.5549684763 119.5560077429 0 -0 0
18.3327444792 119.5560077429 0 -0 0
20.1105204821 119.5560077429 0 -0 0
21.8882964849 119.5560077429 0 -0 0
23.6660724878 119.5560077429 0 -0 0
25.4438484907 119.5560077429 0 -0 0
27.2216244936 119.5560077429 0 -0 0
28.9994004965 119.5560077429 0 -0 0
30.7771764994 119.5560077429 0 -0 0
32.5549525023 119.5560077429 0 -0 0
34.3327285051 119.5560077429 0 -0 0
36.110504508 119.5560077429 -8.0647208589 1.044131012 1
37.8882805109 119.5560077429 -9.7475834143 1.9869254023 1
39.6660565138 119.5560077429 -10.4311729255 0.6660348577 1
41.4438325167 119.5560077429 -8.2693544307 -1.1766739443 1
43.2216085196 119.5560077429 -10.0063114567 -1.5494189316 1
44.9993845224 119.5560077429 -9.5347376554 1.4270131936 1
46.7771605253 119.5560077429 -7.7800140485 1.3744728573 1
48.5549365282 119.5560077429 -8.8951407417 0.9292663575 1
50.3327125311 119.5560077429 -10.6853445287 0.0516573054 1
52.110488534 119.5560077429 -11.7347030833 -1.3777047502 1
53.8882645369 119.5560077429 0 -0 0
-125.6671117544 117.77823174 0 -0 0
-123.8893357515 117.77823174 -10.954457014 0.2643087975 1
-122.1115597486 117.77823174 -11.0744255869 0.9269174954 1
-120.3337837458 117.77823174 -11.1972021979 0.5517353429 1
-118.5560077429 117.77823174 -11.5919523142 0.448332429 1
-116.77823174 117.77823174 -11.3938531708 0.1830699582 1
-115.0004557371 117.77823174 -10.9432425221 -0.0441515431 1
-113.2226797342 117.77823174 -10.1756237941 -0.367729372 1
-111.4449037313 117.77823174 -10.4722515211 -0.1389537364 1
-109.6671277285 117.77823174 -10.9352775837 0.1101845909 1
-107.8893517256 117.77823174 -10.0505336423 -0.9540265429 1
-106.1115757227 117.77823174 -10.5127649771 -2.3688362499 1
-104.3337997198 117.77823174 -11.0606503054 -1.9100840567 1
-102.5560237169 117.77823174 -11.9140113301 0.0500855105 1
-100.778247714 117.77823174 -10.623779617 0.7544439075 1
-99.0004717112 117.77823174 -10.7726586203 0.2083423015 1
-97.2226957083 117.77823174 -11.1874358766 -0.7102570432 1
-95.4449197054 117.77823174 -10.3736346345 -1.4147567252 1
-93.6671437025 117.77823174 -10.8151853865 -1.4294503587 1
-91.8893676996 117.77823174 -12.1189098112 -0.877149876 1
-90.1115916967 117.77823174 -13.1077807519 0.7966351221 1
-88.3338156939 117.77823174 -13.5212511225 1.5777642222 1
-86.556039691 117.77823174 -12.0864495967 1.3918155834 1
-84.7782636881 117.77823174 -12.0447705401 0.4866029866 1
-83.0004876852 117.77823174 -11.8565790028 -0.0853184418 1
-81.2227116823 117.77823174 -11.535491321 0.5847430365 1
-79.4449356794 117.77823174 -12.1178678348 1.0033173256 1
-77.6671596766 117.77823174 -11.5215217727 0.88384325 1
-75.8893836737 117.77823174 -11.5863009167 0.0033378567 1
-74.1116076708 117.77823174 -10.6141015987 0.3046809685 1
-72.3338316679 117.77823174 -10.7199063566 1.5853936089 1
-70.556055665 117.77823174 -11.2293092 1.5686336831 1
-68.7782796621 117.77823174 0 -0 0
-67.0005036592 117.77823174 0 -0 0
-65.2227276564 117.77823174 0 -0 0
-63.4449516535 117.77823174 0 -0 0
-61.6671756506 117.77823174 -11.4545703728 0.1956619783 1
-59.8893996477 117.77823174 -11.3000223114 1.0803882592 1
-58.1116236448 117.77823174 -11.7404604446 2.9724408257 1
-56.3338476419 117.77823174 -11.8976046167 1.5774286705 1
-54.5560716391 117.77823174 -12.8485582121 0.1101492697 1
-52.7782956362 117.77823174 -13.6353387098 -2.6127823557 1
-51.0005196333 117.77823174 -12.1981706613 -1.1805592801 1
-49.2227436304 117.77823174 -10.2740817352 1.4119133658 1
-47.4449676275 117.77823174 -9.6597041829 0.9701860076 1
-45.6671916246 117.77823174 -10.8688736629 0.612081672 1
-43.8894156218 117.77823174 -13.0802478496 0.7074313445 1
-42.1116396189 117.77823174 -12.8495472067 0.5425165007 1
-40.333863616 117.77823174 -12.0188624146 1.488913657 1
-38.5560876131 117.77823174 -10.8131720762 1.3010929927 1
-36.7783116102 117.77823174 -10.5293129754 1.2472104495 1
-35.0005356073 117.77823174 -12.6848442904 1.2886069363 1
-33.2227596045 117.77823174 -11.1019055073 -0.4851194947 1
-31.4449836016 117.77823174 -10.6413342705 -1.7719780299 1
-29.6672075987 117.77823174 -9.4647662899 -0.4730572932 1
-27.8894315958 117.77823174 -8.0335675301 0.6332037702 1
-26.1116555929 117.77823174 -9.7405721492 2.3000128246 1
-24.33387959 117.77823174 -9.0116654942 3.2266830713 1
-22.5561035872 117.77823174 -7.7430856978 1.3539865413 1
-20.7783275843 117.77823174 -9.3174944028 -0.1044802115 1
-19.0005515814 117.77823174 -7.1465277084 0.3060938179 1
-17.2227755785 117.77823174 -9.9897104765 0.7275821087 1
-15.4449995756 117.77823174 -14.5634041453 1.3433548497 1
-13.6672235727 117.77823174 -12.8533089182 2.7045999047 1
-11.8894475698 117.77823174 -9.4199436434 3.3841981164 1
-10.111671567 117.77823174 -6.6896475406 2.9876819383 1