TITLE = "B00011"
VARIABLES = "x", "y", "Vx", "Vy", "isValid"
ZONE T="Frame 0", I=102, J=78, F=POINT
-125.6671117544 126.6671117544 0 -0 0
-123.8893357515 126.6671117544 0 -0 0
-122.1115597486 126.6671117544 0 -0 0
-120.3337837458 126.6671117544 0 -0 0
-118.5560077429 126.6671117544 0 -0 0
-116.77823174 126.6671117544 0 -0 0
-115.0004557371 126.6671117544 0 -0 0
-113.2226797342 126.6671117544 0 -0 0
-111.4449037313 126.6671117544 0 -0 0
-109.6671277285 126.6671117544 0 -0 0
-107.8893517256 126.6671117544 0 -0 0
-106.1115757227 126.6671117544 0 -0 0
-104.3337997198 126.6671117544 0 -0 0
-102.5560237169 126.6671117544 0 -0 0
-100.778247714 126.6671117544 0 -0 0
-99.0004717112 126.6671117544 0 -0 0
-97.2226957083 126.6671117544 0 -0 0
-95.4449197054 126.6671117544 0 -0 0
-93.6671437025 126.6671117544 0 -0 0
-91.8893676996 126.6671117544 0 -0 0
-90.1115916967 126.6671117544 0 -0 0
-88.3338156939 126.6671117544 0 -0 0
-86.556039691 126.6671117544 0 -0 0
-84.7782636881 126.6671117544 0 -0 0
-83.0004876852 126.6671117544 0 -0 0
-81.2227116823 126.6671117544 0 -0 0
-79.4449356794 126.6671117544 0 -0 0
-77.6671596766 126.6671117544 0 -0 0
-75.8893836737 126.6671117544 0 -0 0
-74.1116076708 126.6671117544 0 -0 0
-72.3338316679 126.6671117544 0 -0 0
-70.556055665 126.6671117544 0 -0 0
-68.7782796621 126.6671117544 0 -0 0
-67.0005036592 126.6671117544 0 -0 0
-65.2227276564 126.6671117544 0 -0 0
-63.4449516535 126.6671117544 0 -0 0
-61.6671756506 126.6671117544 0 -0 0
-59.8893996477 126.6671117544 0 -0 0
-58.1116236448 126.6671117544 0 -0 0
-56.3338476419 126.6671117544 0 -0 0
-54.5560716391 126.6671117544 0 -0 0
-52.7782956362 126.6671117544 0 -0 0
-51.0005196333 126.6671117544 0 -0 0
-49.2227436304 126.6671117544 0 -0 0
-47.4449676275 126.6671117544 0 -0 0
-45.6671916246 126.6671117544 0 -0 0
-43.8894156218 126.6671117544 0 -0 0
-42.1116396189 126.6671117544 0 -0 0
-40.333863616 126.6671117544 0 -0 0
-38.5560876131 126.6671117544 0 -0 0
-36.7783116102 126.6671117544 0 -0 0
-35.0005356073 126.6671117544 0 -0 0
-33.2227596045 126.6671117544 0 -0 0
-31.4449836016 126.6671117544 0 -0 0
-29.6672075987 126.6671117544 0 -0 0
-27.8894315958 126.6671117544 0 -0 0
-26.1116555929 126.6671117544 0 -0 0
-24.33387959 126.6671117544 0 -0 0
-22.5561035872 126.6671117544 0 -0 0
-20.7783275843 126.6671117544 0 -0 0
-19.0005515814 126.6671117544 0 -0 0
-17.2227755785 126.6671117544 0 -0 0
-15.4449995756 126.6671117544 0 -0 0
-13.6672235727 126.6671117544 0 -0 0
-11.8894475698 126.6671117544 0 -0 0
-10.111671567 126.6671117544 0 -0 0
-8.3338955641 126.6671117544 0 -0 0
-6.5561195612 126.6671117544 0 -0 0
-4.7783435583 126.6671117544 0 -0 0
-3.0005675554 126.6671117544 0 -0 0
-1.2227915525 126.6671117544 0 -0 0
0.5549844503 126.6671117544 0 -0 0
2.3327604532 126.6671117544 0 -0 0
4.1105364561 126.6671117544 0 -0 0
5.888312459 126.6671117544 0 -0 0
7.6660884619 126.6671117544 0 -0 0
9.4438644648 126.6671117544 0 -0 0
11.2216404676 126.6671117544 0 -0 0
12.9994164705 126.6671117544 0 -0 0
14.7771924734 126.6671117544 0 -0 0
16.5549684763 126.6671117544 0 -0 0
18.3327444792 126.6671117544 0 -0 0
20.1105204821 126.6671117544 0 -0 0
21.8882964849 126.6671117544 0 -0 0
23.6660724878 126.6671117544 0 -0 0
25.4438484907 126.6671117544 0 -0 0
27.2216244936 126.6671117544 0 -0 0
28.9994004965 126.6671117544 0 -0 0
30.7771764994 126.6671117544 0 -0 0
32.5549525023 126.6671117544 0 -0 0
34.3327285051 126.6671117544 0 -0 0
36.110504508 126.6671117544 0 -0 0
37.8882805109 126.6671117544 0 -0 0
39.6660565138 126.6671117544 0 -0 0
41.4438325167 126.6671117544 0 -0 0
43.2216085196 126.6671117544 0 -0 0
44.9993845224 126.6671117544 0 -0 0
46.7771605253 126.6671117544 0 -0 0
48.5549365282 126.6671117544 0 -0 0
50.3327125311 126.6671117544 0 -0 0
52.110488534 126.6671117544 0 -0 0
53.8882645369 126.6671117544 0 -0 0
-125.6671117544 124.8893357515 0 -0 0
-123.8893357515 124.8893357515 -11.3074927525 0.2161836155 1
-122.1115597486 124.8893357515 -10.8876822203 0.1322073806 1
-120.3337837458 124.8893357515 -9.141788922 -0.1865490998 1
-118.5560077429 124.8893357515 -10.8188411343 -0.3427042774 1
-116.77823174 124.8893357515 -11.4633476996 -1.1517371528 1
-115.0004557371 124.8893357515 -10.9213256961 -0.7570576789 1
-113.2226797342 124.8893357515 -11.4491309027 -0.5485211106 1
-111.4449037313 124.8893357515 -12.0723564242 -0.4176735975 1
-109.6671277285 124.8893357515 -10.5502937887 1.7186429659 1
-107.8893517256 124.8893357515 -10.1101382254 3.0433128826 1
-106.1115757227 124.8893357515 -10.3371301387 2.7807348256 1
-104.3337997198 124.8893357515 -10.2662227605 2.2013959379 1
-102.5560237169 124.8893357515 -9.3887903146 1.5458691475 1
-100.778247714 124.8893357515 -9.2335888104 0.1386181847 1
-99.0004717112 124.8893357515 -9.1574009076 -0.4509462004 1
-97.2226957083 124.8893357515 -9.1472813739 0.2387892056 1
-95.4449197054 124.8893357515 -9.7124211254 0.2360164887 1
-93.6671437025 124.8893357515 -11.2412830985 0.0856539936 1
-91.8893676996 124.8893357515 -11.1849987114 1.1733890695 1
-90.1115916967 124.8893357515 -11.4490072784 1.8343376694 1
-88.3338156939 124.8893357515 -12.5580587193 1.2256644965 1
-86.556039691 124.8893357515 -12.7333226847 0.1888096588 1
-84.7782636881 124.8893357515 -12.3101036534 -0.5969112018 1
-83.0004876852 124.8893357515 -13.293853015 0.8752072082 1
-81.2227116823 124.8893357515 -12.0774426819 0.2323784015 1
-79.4449356794 124.8893357515 -11.1649539108 -0.2215877644 1
-77.6671596766 124.8893357515 -11.0883244927 1.8180545803 1
-75.8893836737 124.8893357515 -11.3771109056 1.6467465932 1
-74.1116076708 124.8893357515 -11.2419718626 -0.0202743886 1
-72.3338316679 124.8893357515 -12.7170925775 -0.7826479132 1
-70.556055665 124.8893357515 -13.6338905392 1.0518663623 1
-68.7782796621 124.8893357515 0 -0 0
-67.0005036592 124.8893357515 0 -0 0
-65.2227276564 124.8893357515 0 -0 0
-63.4449516535 124.8893357515 0 -0 0
-61.6671756506 124.8893357515 0 -0 0
-59.8893996477 124.8893357515 -13.4886496231 1.8112022608 1
-58.1116236448 124.8893357515 -12.7454202075 0.906219252 1
-56.3338476419 124.8893357515 -12.699855815 -0.2690418429 1
-54.5560716391 124.8893357515 -11.7560371089 0.0933893439 1
-52.7782956362 124.8893357515 -10.8476632616 -1.389343097 1
-51.0005196333 124.8893357515 -10.8659243399 -0.6316849571 1
-49.2227436304 124.8893357515 -10.0396017202 1.6705707658 1
-47.4449676275 124.8893357515 -9.8988642615 1.2825140234 1
-45.6671916246 124.8893357515 -10.2002250339 0.8968591249 1
-43.8894156218 124.8893357515 -11.1838860925 0.4378950043 1
-42.1116396189 124.8893357515 -11.3452158309 -0.9731883126 1
-40.333863616 124.8893357515 -9.0361431097 -1.217381667 1
-38.5560876131 124.8893357515 -9.0973194878 1.447570152 1
-36.7783116102 124.8893357515 -10.6201768511 1.3499952418 1
-35.0005356073 124.8893357515 -11.0245696644 -0.3100144749 1
-33.2227596045 124.8893357515 -14.4231965051 0.000370873 1
-31.4449836016 124.8893357515 -13.6702890713 -0.3193216202 1
-29.6672075987 124.8893357515 -7.6801962399 -2.8232439313 1
-27.8894315958 124.8893357515 -9.6534523244 -0.2204574849 1
-26.1116555929 124.8893357515 -9.355641336 1.698474541 1
-24.33387959 124.8893357515 -7.8394596861 2.1557785636 1
-22.5561035872 124.8893357515 -8.2684537393 3.4858349686 1
-20.7783275843 124.8893357515 -11.5788481363 2.4025327076 1
-19.0005515814 124.8893357515 -12.051834787 1.2484113715 1
-17.2227755785 124.8893357515 -11.278494019 0.4483500897 1
-15.4449995756 124.8893357515 -9.8586863573 1.090913987 1
-13.6672235727 124.8893357515 -11.4119376428 1.8344789543 1
-11.8894475698 124.8893357515 -12.2293416508 0.3638616968 1
-10.111671567 124.8893357515 -13.9564793736 -0.472651099 1
-8.3338955641 124.8893357515 -11.6486782168 1.2119951788 1
-6.5561195612 124.8893357515 -10.5747184223 2.4245731579 1
-4.7783435583 124.8893357515 -10.525180391 0.7962465885 1
-3.0005675554 124.8893357515 -8.80238718 0.0942017323 1
-1.2227915525 124.8893357515 -8.564586969 1.439728838 1
0.5549844503 124.8893357515 -6.5879577066 2.2537420074 1
2.3327604532 124.8893357515 -7.5648370881 2.0463003974 1
4.1105364561 124.8893357515 -11.7759759458 1.4451683081 1
5.888312459 124.8893357515 -12.4226194457 2.1500918449 1
7.6660884619 124.8893357515 -11.7456173448 0.7118641594 1
9.4438644648 124.8893357515 -12.5229317516 -0.9781862672 1
11.2216404676 124.8893357515 -7.8659152907 2.2397194773 1
12.9994164705 124.8893357515 0 -0 0
14.7771924734 124.8893357515 0 -0 0
16.5549684763 124.8893357515 0 -0 0
18.3327444792 124.8893357515 0 -0 0
20.1105204821 124.8893357515 0 -0 0
21.8882964849 124.8893357515 0 -0 0
23.6660724878 124.8893357515 0 -0 0
25.4438484907 124.8893357515 0 -0 0
27.2216244936 124.8893357515 0 -0 0
28.9994004965 124.8893357515 0 -0 0
30.7771764994 124.8893357515 0 -0 0
32.5549525023 124.8893357515 0 -0 0
34.3327285051 124.8893357515 0 -0 0
36.110504508 124.8893357515 -9.4811023609 1.1724353962 1
37.8882805109 124.8893357515 -8.4991543822 3.0898132878 1
39.6660565138 124.8893357515 -8.7496702376 1.5401117863 1
41.4438325167 124.8893357515 -8.6745066507 -0.2710021714 1
43.2216085196 124.8893357515 -6.0082126247 1.1656890404 1
44.9993845224 124.8893357515 -7.6465527641 0.3678353357 1
46.7771605253 124.8893357515 -8.7737239983 0.0362042653 1
48.5549365282 124.8893357515 -10.0112211083 0.674370669 1
50.3327125311 124.8893357515 -10.5809879414 -0.9024752012 1
52.110488534 124.8893357515 -8.9840266283 -2.1959917891 1
53.8882645369 124.8893357515 0 -0 0
-125.6671117544 123.1115597486 0 -0 0
-123.8893357515 123.1115597486 -10.6458377279 0.9249924881 1
-122.1115597486 123.1115597486 -9.8197446963 0.1778424155 1
-120.3337837458 123.1115597486 -8.8057073761 -0.9020513463 1
-118.5560077429 123.1115597486 -11.7853713942 -1.5307869804 1
-116.77823174 123.1115597486 -11.8515280663 -1.8121735948 1
-115.0004557371 123.1115597486 -10.459571198 -0.9319154501 1
-113.2226797342 123.1115597486 -10.8354421145 0.5486623955 1
-111.4449037313 123.1115597486 -12.622943827 1.6636124826 1
-109.6671277285 123.1115597486 -10.5926262882 2.712847413 1
-107.8893517256 123.1115597486 -10.1113391474 2.0631309656 1
-106.1115757227 123.1115597486 -11.9908526757 1.8654909982 1
-104.3337997198 123.1115597486 -12.2153897631 0.9946283019 1
-102.5560237169 123.1115597486 -11.8346268556 0.2020551217 1
-100.778247714 123.1115597486 -11.6575438466 0.2388421874 1
-99.0004717112 123.1115597486 -10.8589307354 0.0698654018 1
-97.2226957083 123.1115597486 -10.2708675028 0.0811681968 1
-95.4449197054 123.1115597486 -9.8771770235 -0.5286352556 1
-93.6671437025 123.1115597486 -10.0313012301 -0.258427812 1
-91.8893676996 123.1115597486 -10.9331583097 -0.1897456715 1
-90.1115916967 123.1115597486 -11.0959892005 0.7027866021 1
-88.3338156939 123.1115597486 -10.6551448732 1.6043611118 1
-86.556039691 123.1115597486 -11.8998828363 2.1172254362 1
-84.7782636881 123.1115597486 -11.4434088627 1.9487078266 1
-83.0004876852 123.1115597486 -11.5749981217 1.3755501549 1
-81.2227116823 123.1115597486 -12.5178454939 0.3594112213 1
-79.4449356794 123.1115597486 -12.6675368855 1.0921502302 1
-77.6671596766 123.1115597486 -11.291227324 2.774765537 1
-75.8893836737 123.1115597486 -10.0873913504 1.692752501 1
-74.1116076708 123.1115597486 -11.2871830427 0.4970227508 1
-72.3338316679 123.1115597486 -12.6852681452 -0.037511151 1
-70.556055665 123.1115597486 -12.1053817784 0.2213934976 1
-68.7782796621 123.1115597486 0 -0 0
-67.0005036592 123.1115597486 0 -0 0
-65.2227276564 123.1115597486 0 -0 0
-63.4449516535 123.1115597486 0 -0 0
-61.6671756506 123.1115597486 0 -0 0
-59.8893996477 123.1115597486 -12.232237992 1.3621634071 1
-58.1116236448 123.1115597486 -11.5943364976 0.7457902051 1
-56.3338476419 123.1115597486 -11.5488604082 -0.9548742525 1
-54.5560716391 123.1115597486 -9.7974746579 -0.9058483791 1
-52.7782956362 123.1115597486 -8.0888982439 -1.6079462171 1
-51.0005196333 123.1115597486 -9.1905852074 -1.8439450452 1
-49.2227436304 123.1115597486 -7.6107017111 -1.0789930704 1
-47.4449676275 123.1115597486 -7.7379641189 -0.0282923088 1
-45.6671916246 123.1115597486 -9.2504370392 1.3852105126 1
-43.8894156218 123.1115597486 -10.5262047068 -0.2255967245 1
-42.1116396189 123.1115597486 -11.1501013317 -3.2217910804 1
-40.333863616 123.1115597486 -11.1550816258 -1.6646897803 1
-38.5560876131 123.1115597486 -11.5621941742 3.7551417208 1
-36.7783116102 123.1115597486 -9.3906800006 2.7332984077 1
-35.0005356073 123.1115597486 -8.8763145238 0.067869752 1
-33.2227596045 123.1115597486 -10.9830848746 0.7748419204 1
-31.4449836016 123.1115597486 -11.7426680217 0.4524473529 1
-29.6672075987 123.1115597486 -8.8989730957 -0.7647753686 1
-27.8894315958 123.1115597486 -9.1302212177 0.1146174058 1
-26.1116555929 123.1115597486 -10.3809637907 -0.173162352 1
-24.33387959 123.1115597486 -11.5361447638 -0.7081730904 1
-22.5561035872 123.1115597486 -10.5400506307 1.2855869708 1
-20.7783275843 123.1115597486 -11.8675815674 1.6875956008 1
-19.0005515814 123.1115597486 -13.3551353568 0.2781017395 1
-17.2227755785 123.1115597486 -11.590486483 0.9205596732 1
-15.4449995756 123.1115597486 -8.1050753692 2.9246335348 1
-13.6672235727 123.1115597486 -10.0955682162 0.5721156952 1
-11.8894475698 123.1115597486 -9.3085757911 -2.4056586368 1
-10.111671567 123.1115597486 -8.2919600208 -2.1297644744 1
-8.3338955641 123.1115597486 -9.7774828392 1.1625454505 1
-6.5561195612 123.1115597486 -11.6197324652 2.0311122666 1
-4.7783435583 123.1115597486 -10.6366542069 0.9378847387 1
-3.0005675554 123.1115597486 -9.1623282198 2.8852326978 1
-1.2227915525 123.1115597486 -10.5341166633 5.3750265151 1
0.5549844503 123.1115597486 -11.091538725 5.0253639545 1
2.3327604532 123.1115597486 -10.7720934805 3.2520790389 1
4.1105364561 123.1115597486 -10.6716222291 1.3084751307 1
5.888312459 123.1115597486 -10.8227441307 1.6996224811 1
7.6660884619 123.1115597486 -10.3000605031 2.1303472748 1
9.4438644648 123.1115597486 -12.5092447733 1.3163694266 1
11.2216404676 123.1115597486 -9.7297638515 1.9034966465 1
12.9994164705 123.1115597486 0 -0 0
14.7771924734 123.1115597486 0 -0 0
16.5549684763 123.1115597486 0 -0 0
18.3327444792 123.1115597486 0 -0 0
20.1105204821 123.1115597486 0 -0 0
21.8882964849 123.1115597486 0 -0 0
23.6660724878 123.1115597486 0 -0 0
25.4438484907 123.1115597486 0 -0 0
27.2216244936 123.1115597486 0 -0 0
28.9994004965 123.1115597486 0 -0 0
30.7771764994 123.1115597486 0 -0 0
32.5549525023 123.1115597486 0 -0 0
34.3327285051 123.1115597486 0 -0 0
36.110504508 123.1115597486 -8.5581408437 2.0100254896 1
37.8882805109 123.1115597486 -10.0005364349 2.1303649354 1
39.6660565138 123.1115597486 -9.409347273 1.3616689098 1
41.4438325167 123.1115597486 -5.9430096259 1.4331590884 1
43.2216085196 123.1115597486 -5.995143768 3.7858535341 1
44.9993845224 123.1115597486 -9.3211678112 3.4897556256 1
46.7771605253 123.1115597486 -10.1130875485 2.3952388727 1
48.5549365282 123.1115597486 -7.3210499279 1.911779476 1
50.3327125311 123.1115597486 -4.799396357 -0.2310891765 1
52.110488534 123.1115597486 -5.2114185571 -2.5761542356 1
53.8882645369 123.1115597486 0 -0 0
-125.6671117544 121.3337837458 0 -0 0
-123.8893357515 121.3337837458 -10.3395319826 0.202690904 1
-122.1115597486 121.3337837458 -9.9473249952 -0.6596417142 1
-120.3337837458 121.3337837458 -11.3380102991 -1.2111474691 1
-118.5560077429 121.3337837458 -12.5133243758 -1.4662374244 1
-116.77823174 121.3337837458 -12.3581228716 -1.4308808687 1
-115.0004557371 121.3337837458 -10.3994721175 -0.211962728 1
-113.2226797342 121.3337837458 -10.6702976828 0.621123908 1
-111.4449037313 121.3337837458 -11.9451823195 0.4572687014 1
-109.6671277285 121.3337837458 -10.1846307089 0.3949797044 1
-107.8893517256 121.3337837458 -9.9262382182 0.3769482142 1
-106.1115757227 121.3337837458 -10.532421244 0.7188754244 1
-104.3337997198 121.3337837458 -12.5436123344 -0.7767316065 1
-102.5560237169 121.3337837458 -13.1621931136 -1.3165283722 1
-100.778247714 121.3337837458 -11.996557055 0.4535599717 1
-99.0004717112 121.3337837458 -11.5759871163 0.616973663 1
-97.2226957083 121.3337837458 -11.1773163429 -1.5238816791 1
-95.4449197054 121.3337837458 -11.1452799832 -1.3552757664 1
-93.6671437025 121.3337837458 -10.947904925 0.2894221952 1
-91.8893676996 121.3337837458 -10.651877659 -0.2756292531 1
-90.1115916967 121.3337837458 -10.1735928231 -0.25150485 1
-88.3338156939 121.3337837458 -9.7614646594 0.2039448078 1
-86.556039691 121.3337837458 -10.543635736 1.0865341539 1
-84.7782636881 121.3337837458 -12.6483574552 2.3608536509 1
-83.0004876852 121.3337837458 -11.2865649211 2.2611241454 1
-81.2227116823 121.3337837458 -11.4055444994 0.1668751722 1
-79.4449356794 121.3337837458 -13.4241177277 0.3091137834 1
-77.6671596766 121.3337837458 -11.5703003975 1.2619747255 1
-75.8893836737 121.3337837458 -10.2725276009 1.0618092898 1
-74.1116076708 121.3337837458 -11.6073876937 0.6849670393 1
-72.3338316679 121.3337837458 -12.0029855197 0.0840998593 1
-70.556055665 121.3337837458 -11.3976502035 0.0862191333 1
-68.7782796621 121.3337837458 0 -0 0
-67.0005036592 121.3337837458 0 -0 0
-65.2227276564 121.3337837458 0 -0 0
-63.4449516535 121.3337837458 0 -0 0
-61.6671756506 121.3337837458 0 -0 0
-59.8893996477 121.3337837458 -12.0638793279 0.4405794181 1
-58.1116236448 121.3337837458 -11.0791056505 1.6867832124 1
-56.3338476419 121.3337837458 -10.7684553934 1.8569785807 1
-54.5560716391 121.3337837458 -10.4658760383 2.2833941837 1
-52.7782956362 121.3337837458 -10.024201662 0.8336517758 1
-51.0005196333 121.3337837458 -9.0987676584 -0.8362478865 1
-49.2227436304 121.3337837458 -7.7277033002 -1.1446552453 1
-47.4449676275 121.3337837458 -9.7519455867 -1.29300443 1
-45.6671916246 121.3337837458 -10.7971362357 -0.487415375 1
-43.8894156218 121.3337837458 -11.6048445648 -0.1985406589 1
-42.1116396189 121.3337837458 -12.3321087824 -1.6692108983 1
-40.333863616 121.3337837458 -12.5301019622 -0.9187406296 1
-38.5560876131 121.3337837458 -13.0044484804 2.9472744461 1
-36.7783116102 121.3337837458 -12.0005836758 2.5808342992 1
-35.0005356073 121.3337837458 -9.9599876577 -0.6624320917 1
-33.2227596045 121.3337837458 -9.556442554 -0.1221584894 1
-31.4449836016 121.3337837458 -10.7182992404 1.7063158551 1
-29.6672075987 121.3337837458 -11.381013902 1.3166166752 1
-27.8894315958 121.3337837458 -10.0558671487 1.9858834259 1
-26.1116555929 121.3337837458 -12.5995435092 1.547970761 1
-24.33387959 121.3337837458 -14.2862207579 -1.2350599449 1
-22.5561035872 121.3337837458 -12.2266042551 -1.4712530397 1
-20.7783275843 121.3337837458 -12.3967113203 1.4789707295 1
-19.0005515814 121.3337837458 -13.8392128751 1.4566477093 1
-17.2227755785 121.3337837458 -11.1437788308 1.8951961564 1
-15.4449995756 121.3337837458 -9.2712412463 1.9840114004 1
-13.6672235727 121.3337837458 -11.5838460909 0.7243678764 1
-11.8894475698 121.3337837458 -9.017210928 -2.0795200184 1
-10.111671567 121.3337837458 -6.9997326579 -2.4214119074 1
-8.3338955641 121.3337837458 -9.3312873449 1.0001030932 1
-6.5561195612 121.3337837458 -11.75091553 0.347243056 1
-4.7783435583 121.3337837458 -14.2685248194 -1.9253604906 1
-3.0005675554 121.3337837458 -11.288366304 1.8620295172 1
-1.2227915525 121.3337837458 -8.7803290691 4.3514524616 1
0.5549844503 121.3337837458 -12.3588469569 4.2082778377 1
2.3327604532 121.3337837458 -12.9267417646 3.618095331 1
4.1105364561 121.3337837458 -10.9252463531 2.4110274645 1
5.888312459 121.3337837458 -10.3994191357 1.6475059997 1
7.6660884619 121.3337837458 -7.9343501825 1.917360231 1
9.4438644648 121.3337837458 -12.1558734831 1.1686913453 1
11.2216404676 121.3337837458 -13.3936884842 1.654782174 1
12.9994164705 121.3337837458 0 -0 0
14.7771924734 121.3337837458 0 -0 0
16.5549684763 121.3337837458 0 -0 0
18.3327444792 121.3337837458 0 -0 0
20.1105204821 121.3337837458 0 -0 0
21.8882964849 121.3337837458 0 -0 0
23.6660724878 121.3337837458 0 -0 0
25.4438484907 121.3337837458 0 -0 0
27.2216244936 121.3337837458 0 -0 0
28.9994004965 121.3337837458 0 -0 0
30.7771764994 121.3337837458 0 -0 0
32.5549525023 121.3337837458 0 -0 0
34.3327285051 121.3337837458 0 -0 0
36.110504508 121.3337837458 -9.1589020601 1.167737672 1
37.8882805109 121.3337837458 -13.6336256299 1.2093284256 1
39.6660565138 121.3337837458 -10.6092625896 1.8705419347 1
41.4438325167 121.3337837458 -7.0516548726 3.0626159372 1
43.2216085196 121.3337837458 -9.3023239326 4.7638278739 1
44.9993845224 121.3337837458 -11.3620463991 4.1939550771 1
46.7771605253 121.3337837458 -10.5083674834 1.9161239878 1
48.5549365282 121.3337837458 -5.1914267384 0.9019100614 1
50.3327125311 121.3337837458 -1.5373743906 0.4449769118 1
52.110488534 121.3337837458 -1.3539158988 -2.1786314023 1
53.8882645369 121.3337837458 0 -0 0
-125.6671117544 119.5560077429 0 -0 0
-123.8893357515 119.5560077429 -10.6025162338 -0.2140820021 1
-122.1115597486 119.5560077429 -11.310883591 -1.2173993276 1
-120.3337837458 119.5560077429 -12.2057647268 -1.5154752253 1
-118.5560077429 119.5560077429 -12.3998725707 -0.772510719 1
-116.77823174 119.5560077429 -11.7321422938 -0.9722699605 1
-115.0004557371 119.5560077429 -10.2523944972 -0.7154492647 1
-113.2226797342 119.5560077429 -10.0728213412 -0.3991299494 1
-111.4449037313 119.5560077429 -11.0149622887 -0.4612246796 1
-109.6671277285 119.5560077429 -10.4470144991 -0.599577955 1
-107.8893517256 119.5560077429 -9.660392947 -0.7223192448 1
-106.1115757227 119.5560077429 -9.4404122988 -0.1536650305 1
-104.3337997198 119.5560077429 -11.9082716295 0.2809980808 1
-102.5560237169 119.5560077429 -11.9058697855 1.0769091176 1
-100.778247714 119.5560077429 -10.8618800585 0.989224153 1
-99.0004717112 119.5560077429 -10.0490854716 -0.3718089746 1
-97.2226957083 119.5560077429 -10.5149902148 -0.9790163162 1
-95.4449197054 119.5560077429 -11.9703840203 -0.2896341226 1
-93.6671437025 119.5560077429 -11.6196971439 1.0377025473 1
-91.8893676996 119.5560077429 -10.4820355031 0.6390317739 1
-90.1115916967 119.5560077429 -11.3812258294 -0.9311913648 1
-88.3338156939 119.5560077429 -12.3837484272 -0.8518245509 1
-86.556039691 119.5560077429 -10.5566339503 0.5248382229 1
-84.7782636881 119.5560077429 -12.0152949699 0.5274519942 1
-83.0004876852 119.5560077429 -11.2918984275 0.3399315605 1
-81.2227116823 119.5560077429 -11.9701544323 -0.4904883224 1
-79.4449356794 119.5560077429 -12.2892464644 -0.307700934 1
-77.6671596766 119.5560077429 -10.7487991264 0.1212754585 1
-75.8893836737 119.5560077429 -10.8156798838 -0.0379526664 1
-74.1116076708 119.5560077429 -12.1960513873 0.4573570045 1
-72.3338316679 119.5560077429 -12.239019669 -0.2396192546 1
-70.556055665 119.5560077429 -12.126486216 -0.7345227313 1
-68.7782796621 119.5560077429 0 -0 0
-67.0005036592 119.5560077429 0 -0 0
-65.2227276564 119.5560077429 0 -0 0
-63.4449516535 119.5560077429 0 -0 0
-61.6671756506 119.5560077429 0 -0 0
-59.8893996477 119.5560077429 -11.52487729 1.5711238302 1
-58.1116236448 119.5560077429 -11.3910451326 1.9820687325 1
-56.3338476419 119.5560077429 -11.4438503781 1.2780812084 1
-54.5560716391 119.5560077429 -12.1211703702 1.6962316426 1
-52.7782956362 119.5560077429 -13.0570947804 0.9926679734 1
-51.0005196333 119.5560077429 -11.8114561258 -0.6153842074 1
-49.2227436304 119.5560077429 -9.7912404601 -0.0953673331 1
-47.4449676275 119.5560077429 -10.7829017782 -0.5022502935 1
-45.6671916246 119.5560077429 -13.2111836658 -1.6058975855 1
-43.8894156218 119.5560077429 -12.4239086708 0.624814977 1
-42.1116396189 119.5560077429 -11.3544170125 -0.0413435049 1
-40.333863616 119.5560077429 -11.3613929563 -1.1220673158 1
-38.5560876131 119.5560077429 -11.6264611603 0.2992944802 1
-36.7783116102 119.5560077429 -13.505815743 1.2190064438 1
-35.0005356073 119.5560077429 -12.4567220976 -1.0334286779 1
-33.2227596045 119.5560077429 -11.5952371891 0.7565278604 1
-31.4449836016 119.5560077429 -11.0925807014 3.454858246 1
-29.6672075987 119.5560077429 -11.8253197103 1.9695120337 1
-27.8894315958 119.5560077429 -9.983688206 2.2543777896 1
-26.1116555929 119.5560077429 -11.872720807 2.6541788425 1
-24.33387959 119.5560077429 -11.8591221317 1.3993213457 1
-22.5561035872 119.5560077429 -9.787461088 0.9466090836 1
-20.7783275843 119.5560077429 -11.7958794614 1.0559989468 1
-19.0005515814 119.5560077429 -12.8151973062 0.6348462076 1
-17.2227755785 119.5560077429 -11.2914215908 0.5421456278 1
-15.4449995756 119.5560077429 -10.2936143778 0.7103983281 1
-13.6672235727 119.5560077429 -12.8930806282 0.350704537 1
-11.8894475698 119.5560077429 -11.4775998177 -0.2297116483 1
-10.111671567 119.5560077429 -10.1998365003 -0.3186858379 1
-8.3338955641 119.5560077429 -9.5768935487 0.5630204773 1
-6.5561195612 119.5560077429 -9.8238772807 -0.1069880192 1
-4.7783435583 119.5560077429 -13.0569711561 -2.2572034884 1
-3.0005675554 119.5560077429 -10.701892527 0.137770475 1
-1.2227915525 119.5560077429 -7.9873673554 0.6020857627 1
0.5549844503 119.5560077429 -10.0103027562 0.4905413042 1
2.3327604532 119.5560077429 -11.3962903359 2.3536834403 1
4.1105364561 119.5560077429 -10.6370780618 1.3121132178 1
5.888312459 119.5560077429 -10.0659690217 0.2239366265 1
7.6660884619 119.5560077429 -10.441345441 -0.0930008103 1
9.4438644648 119.5560077429 -12.0325317323 -0.6262278264 1
11.2216404676 119.5560077429 -12.7851389357 0.6422989881 1
12.9994164705 119.5560077429 0 -0 0
14.7771924734 119.5560077429 0 -0 0
16.5549684763 119.5560077429 0 -0 0
18.3327444792 119.5560077429 0 -0 0
20.1105204821 119.5560077429 0 -0 0
21.8882964849 119.5560077429 0 -0 0
23.6660724878 119.5560077429 0 -0 0
25.4438484907 119.5560077429 0 -0 0
27.2216244936 119.5560077429 0 -0 0
28.9994004965 119.5560077429 0 -0 0
30.7771764994 119.5560077429 0 -0 0
32.5549525023 119.5560077429 0 -0 0
34.3327285051 119.5560077429 0 -0 0
36.110504508 119.5560077429 -11.3884137007 1.3403525448 1
37.8882805109 119.5560077429 -12.7208896102 1.7259014796 1
39.6660565138 119.5560077429 -12.3233667769 2.1308947539 1
41.4438325167 119.5560077429 -10.8243865681 2.057161677 1
43.2216085196 119.5560077429 -9.2151687866 0.6259275959 1
44.9993845224 119.5560077429 -10.702722576 1.3236632615 1
46.7771605253 119.5560077429 -8.6425762547 0.1877147006 1
48.5549365282 119.5560077429 -4.5901180429 -0.9141841904 1
50.3327125311 119.5560077429 -4.1481964179 1.0924504607 1
52.110488534 119.5560077429 -3.3112597672 -0.4952920103 1
53.8882645369 119.5560077429 0 -0 0
-125.6671117544 117.77823174 0 -0 0
-123.8893357515 117.77823174 -8.7589067404 -0.4009666536 1
-122.1115597486 117.77823174 -11.1009341734 -1.5180360148 1
-120.3337837458 117.77823174 -11.3388580087 -1.3689450841 1
-118.5560077429 117.77823174 -11.8363575961 -1.7950604567 1
-116.77823174 117.77823174 -11.6379405615 -1.5772344037 1
-115.0004557371 117.77823174 -11.3771109056 -0.6411333874 1
-113.2226797342 117.77823174 -10.6938746068 -0.7412867477 1
-111.4449037313 117.77823174 -11.7713841853 -0.728535782 1
-109.6671277285 117.77823174 -10.6267995825 -0.8450781952 1
-107.8893517256 117.77823174 -9.718160826 -1.720532652 1
-106.1115757227 117.77823174 -10.6098807112 -1.1420767951 1
-104.3337997198 117.77823174 -11.3136739685 0.5425341614 1
-102.5560237169 117.77823174 -11.0219029112 1.5467168572 1
-100.778247714 117.77823174 -11.0724652584 0.4197575504 1
-99.0004717112 117.77823174 -11.3244999269 -1.230856718 1
-97.2226957083 117.77823174 -11.2126375773 -0.2111503396 1
-95.4449197054 117.77823174 -11.5640661996 0.7725283796 1
-93.6671437025 117.77823174 -11.4739264093 1.729804476 1
-91.8893676996 117.77823174 -11.687196023 2.0164892755 1
-90.1115916967 117.77823174 -12.0188270934 -0.4150774868 1
-88.3338156939 117.77823174 -12.1122340979 -1.3373325793 1
-86.556039691 117.77823174 -9.7025488403 0.2163072399 1
-84.7782636881 117.77823174 -10.5408806797 0.2171902707 1
-83.0004876852 117.77823174 -11.6031844668 -0.4168612091 1
-81.2227116823 117.77823174 -12.2766544443 -0.3836062669 1
-79.4449356794 117.77823174 -11.8642613713 0.9364365681 1
-77.6671596766 117.77823174 -11.1590729253 0.6065892201 1
-75.8893836737 117.77823174 -11.2755446959 -0.5213237601 1
-74.1116076708 117.77823174 -12.3759247738 0.3557731341 1
-72.3338316679 117.77823174 -12.7349298009 -0.0509685413 1
-70.556055665 117.77823174 -12.8813363177 -1.2267241335 1
-68.7782796621 117.77823174 0 -0 0
-67.0005036592 117.77823174 0 -0 0
-65.2227276564 117.77823174 0 -0 0
-63.4449516535 117.77823174 0 -0 0
-61.6671756506 117.77823174 -6.3085137601 -2.1626308831 1
-59.8893996477 117.77823174 -9.1511313885 1.0834435459 1
-58.1116236448 117.77823174 -10.6558336373 1.0779864152 1
-56.3338476419 117.77823174 -12.4118288086 -0.3038685801 1
-54.5560716391 117.77823174 -14.0661341459 -1.1391804539 1
-52.7782956362 117.77823174 -12.8908553904 1.9863249413 1
-51.0005196333 117.77823174 -11.9170312956 1.7583087122 1
-49.2227436304 117.77823174 -10.8975368447 0.0207335646 1
-47.4449676275 117.77823174 -11.3880604883 -0.2366169497 1
-45.6671916246 117.77823174 -13.6403719857 -0.2089957443 1
-43.8894156218 117.77823174 -12.8155681792 1.4436318344 1
-42.1116396189 117.77823174 -9.6836696405 1.0774742573 1
-40.333863616 117.77823174 -10.8773860804 0.0160888223 1
-38.5560876131 117.77823174 -11.9660571691 -0.8472681117 1
-36.7783116102 117.77823174 -12.0940789834 -0.643411607 1
-35.0005356073 117.77823174 -11.7409196206 0.3651156006 1
-33.2227596045 117.77823174 -11.4005642053 2.2950325305 1
-31.4449836016 117.77823174 -10.4432174664 4.5600773329 1
-29.6672075987 117.77823174 -8.8409579681 1.6199201156 1
-27.8894315958 117.77823174 -10.3583228794 -0.5707028458 1
-26.1116555929 117.77823174 -11.9774306066 0.9749367137 1
-24.33387959 117.77823174 -10.3330505361 2.9230264186 1
-22.5561035872 117.77823174 -9.0127251313 2.3900819724 1
-20.7783275843 117.77823174 -10.0823933957 1.0453672552 1
-19.0005515814 117.77823174 -10.7401984058 -0.4323495705 1
-17.2227755785 117.77823174 -10.2523944972 0.1070763223 1
-15.4449995756 117.77823174 -9.6651789743 1.9501913184 1
-13.6672235727 117.77823174 -12.4111047233 1.8594687277 1
-11.8894475698 117.77823174 -13.5937479562 1.741336859 1
-10.111671567 117.77823174 -13.1440733203 2.7630035659 1