TITLE = "B00002"
VARIABLES = "x", "y", "Vx", "Vy", "isValid"
ZONE T="Frame 0", I=102, J=78, F=POINT
-125.6671117544 126.6671117544 0 -0 0
-123.8893357515 126.6671117544 0 -0 0
-122.1115597486 126.6671117544 0 -0 0
-120.3337837458 126.6671117544 0 -0 0
-118.5560077429 126.6671117544 0 -0 0
-116.77823174 126.6671117544 0 -0 0
-115.0004557371 126.6671117544 0 -0 0
-113.2226797342 126.6671117544 0 -0 0
-111.4449037313 126.6671117544 0 -0 0
-109.6671277285 126.6671117544 0 -0 0
-107.8893517256 126.6671117544 0 -0 0
-106.1115757227 126.6671117544 0 -0 0
-104.3337997198 126.6671117544 0 -0 0
-102.5560237169 126.6671117544 0 -0 0
-100.778247714 126.6671117544 0 -0 0
-99.0004717112 126.6671117544 0 -0 0
-97.2226957083 126.6671117544 0 -0 0
-95.4449197054 126.6671117544 0 -0 0
-93.6671437025 126.6671117544 0 -0 0
-91.8893676996 126.6671117544 0 -0 0
-90.1115916967 126.6671117544 0 -0 0
-88.3338156939 126.6671117544 0 -0 0
-86.556039691 126.6671117544 0 -0 0
-84.7782636881 126.6671117544 0 -0 0
-83.0004876852 126.6671117544 0 -0 0
-81.2227116823 126.6671117544 0 -0 0
-79.4449356794 126.6671117544 0 -0 0
-77.6671596766 126.6671117544 0 -0 0
-75.8893836737 126.6671117544 0 -0 0
-74.1116076708 126.6671117544 0 -0 0
-72.3338316679 126.6671117544 0 -0 0
-70.556055665 126.6671117544 0 -0 0
-68.7782796621 126.6671117544 0 -0 0
-67.0005036592 126.6671117544 0 -0 0
-65.2227276564 126.6671117544 0 -0 0
-63.4449516535 126.6671117544 0 -0 0
-61.6671756506 126.6671117544 0 -0 0
-59.8893996477 126.6671117544 0 -0 0
-58.1116236448 126.6671117544 0 -0 0
-56.3338476419 126.6671117544 0 -0 0
-54.5560716391 126.6671117544 0 -0 0
-52.7782956362 126.6671117544 0 -0 0
-51.0005196333 126.6671117544 0 -0 0
-49.2227436304 126.6671117544 0 -0 0
-47.4449676275 126.6671117544 0 -0 0
-45.6671916246 126.6671117544 0 -0 0
-43.8894156218 126.6671117544 0 -0 0
-42.1116396189 126.6671117544 0 -0 0
-40.333863616 126.6671117544 0 -0 0
-38.5560876131 126.6671117544 0 -0 0
-36.7783116102 126.6671117544 0 -0 0
-35.0005356073 126.6671117544 0 -0 0
-33.2227596045 126.6671117544 0 -0 0
-31.4449836016 126.6671117544 0 -0 0
-29.6672075987 126.6671117544 0 -0 0
-27.8894315958 126.6671117544 0 -0 0
-26.1116555929 126.6671117544 0 -0 0
-24.33387959 126.6671117544 0 -0 0
-22.5561035872 126.6671117544 0 -0 0
-20.7783275843 126.6671117544 0 -0 0
-19.0005515814 126.6671117544 0 -0 0
-17.2227755785 126.6671117544 0 -0 0
-15.4449995756 126.6671117544 0 -0 0
-13.6672235727 126.6671117544 0 -0 0
-11.8894475698 126.6671117544 0 -0 0
-10.111671567 126.6671117544 0 -0 0
-8.3338955641 126.6671117544 0 -0 0
-6.5561195612 126.6671117544 0 -0 0
-4.7783435583 126.6671117544 0 -0 0
-3.0005675554 126.6671117544 0 -0 0
-1.2227915525 126.6671117544 0 -0 0
0.5549844503 126.6671117544 0 -0 0
2.3327604532 126.6671117544 0 -0 0
4.1105364561 126.6671117544 0 -0 0
5.888312459 126.6671117544 0 -0 0
7.6660884619 126.6671117544 0 -0 0
9.4438644648 126.6671117544 0 -0 0
11.2216404676 126.6671117544 0 -0 0
12.9994164705 126.6671117544 0 -0 0
14.7771924734 126.6671117544 0 -0 0
16.5549684763 126.6671117544 0 -0 0
18.3327444792 126.6671117544 0 -0 0
20.1105204821 126.6671117544 0 -0 0
21.8882964849 126.6671117544 0 -0 0
23.6660724878 126.6671117544 0 -0 0
25.4438484907 126.6671117544 0 -0 0
27.2216244936 126.6671117544 0 -0 0
28.9994004965 126.6671117544 0 -0 0
30.7771764994 126.6671117544 0 -0 0
32.5549525023 126.6671117544 0 -0 0
34.3327285051 126.6671117544 0 -0 0
36.110504508 126.6671117544 0 -0 0
37.8882805109 126.6671117544 0 -0 0
39.6660565138 126.6671117544 0 -0 0
41.4438325167 126.6671117544 0 -0 0
43.2216085196 126.6671117544 0 -0 0
44.9993845224 126.6671117544 0 -0 0
46.7771605253 126.6671117544 0 -0 0
48.5549365282 126.6671117544 0 -0 0
50.3327125311 126.6671117544 0 -0 0
52.110488534 126.6671117544 0 -0 0
53.8882645369 126.6671117544 0 -0 0
-125.6671117544 124.8893357515 0 -0 0
-123.8893357515 124.8893357515 -12.4757425824 1.0377202079 1
-122.1115597486 124.8893357515 -11.7984225903 0.0921001189 1
-120.3337837458 124.8893357515 -10.2051700067 0.3266331157 1
-118.5560077429 124.8893357515 -8.7262699198 1.1943345615 1
-116.77823174 124.8893357515 -10.3464019627 0.5622434102 1
-115.0004557371 124.8893357515 -12.1178501742 0.4776490536 1
-113.2226797342 124.8893357515 -13.01387925 0.4064061237 1
-111.4449037313 124.8893357515 -13.045809646 -0.4022382181 1
-109.6671277285 124.8893357515 -12.4928557205 -0.3748995826 1
-107.8893517256 124.8893357515 -12.8178287382 0.4443941114 1
-106.1115757227 124.8893357515 -13.449160483 1.126164579 1
-104.3337997198 124.8893357515 -12.3623260985 1.2379033042 1
-102.5560237169 124.8893357515 -11.8938252446 1.1283368349 1
-100.778247714 124.8893357515 -12.1696664251 0.9733295975 1
-99.0004717112 124.8893357515 -10.9703339089 1.2142027559 1
-97.2226957083 124.8893357515 -9.8705719527 0.9911844815 1
-95.4449197054 124.8893357515 -10.3000251819 -0.4234309587 1
-93.6671437025 124.8893357515 -11.312914562 -0.4344865051 1
-91.8893676996 124.8893357515 -11.6871077199 -0.2178083923 1
-90.1115916967 124.8893357515 -11.7471184972 -0.0025961107 1
-88.3338156939 124.8893357515 -11.192857686 0.5384015769 1
-86.556039691 124.8893357515 -9.2022412148 1.790892551 1
-84.7782636881 124.8893357515 -9.8943608041 1.0281481534 1
-83.0004876852 124.8893357515 -12.5958877614 -1.1056076206 1
-81.2227116823 124.8893357515 -12.5634628682 -1.5757685725 1
-79.4449356794 124.8893357515 -11.0498420077 -1.2898255189 1
-77.6671596766 124.8893357515 -10.0547015479 -0.0426857118 1
-75.8893836737 124.8893357515 -9.4816321794 0.1656565896 1
-74.1116076708 124.8893357515 -11.2515262565 -0.7329509364 1
-72.3338316679 124.8893357515 -11.6337549952 0.2492619516 1
-70.556055665 124.8893357515 -11.1926457586 1.992382533 1
-68.7782796621 124.8893357515 0 -0 0
-67.0005036592 124.8893357515 0 -0 0
-65.2227276564 124.8893357515 0 -0 0
-63.4449516535 124.8893357515 0 -0 0
-61.6671756506 124.8893357515 0 -0 0
-59.8893996477 124.8893357515 -10.9721176313 -1.7811438903 1
-58.1116236448 124.8893357515 -11.8136460424 -0.3194805657 1
-56.3338476419 124.8893357515 -10.7347059538 0.0290163941 1
-54.5560716391 124.8893357515 -13.3956311521 0.0775477703 1
-52.7782956362 124.8893357515 -14.9097111886 3.1531795824 1
-51.0005196333 124.8893357515 -13.1132025614 2.7326449649 1
-49.2227436304 124.8893357515 -12.2162904546 1.5021767805 1
-47.4449676275 124.8893357515 -11.1075215836 1.4488946983 1
-45.6671916246 124.8893357515 -13.4541231164 0.4949917798 1
-43.8894156218 124.8893357515 -12.604258894 -0.5391786441 1
-42.1116396189 124.8893357515 -10.8424887008 -1.3029120363 1
-40.333863616 124.8893357515 -10.4021388707 0.1239951936 1
-38.5560876131 124.8893357515 -11.6514332731 1.2372498614 1
-36.7783116102 124.8893357515 -13.1308808392 1.501505677 1
-35.0005356073 124.8893357515 -12.4093739828 0.707360702 1
-33.2227596045 124.8893357515 -11.6275737792 1.181530614 1
-31.4449836016 124.8893357515 -11.0179645936 2.6644220005 1
-29.6672075987 124.8893357515 -12.0202046215 0.3252909088 1
-27.8894315958 124.8893357515 -13.2457808149 -0.573510884 1
-26.1116555929 124.8893357515 -9.6847116169 0.5673649892 1
-24.33387959 124.8893357515 -7.5219394489 0.8120175197 1
-22.5561035872 124.8893357515 -7.0022934474 -0.6456191841 1
-20.7783275843 124.8893357515 -6.6742828036 1.7188372327 1
-19.0005515814 124.8893357515 -10.3247323854 2.7987839764 1
-17.2227755785 124.8893357515 -11.3245352481 2.0829638388 1
-15.4449995756 124.8893357515 -10.6699797917 1.8645549855 1
-13.6672235727 124.8893357515 -9.0329818592 0.5378717584 1
-11.8894475698 124.8893357515 -8.3131704221 -1.0155737939 1
-10.111671567 124.8893357515 -9.1343714627 -0.4532774019 1
-8.3338955641 124.8893357515 -10.9034884727 0.9885707102 1
-6.5561195612 124.8893357515 -11.4096770838 0.3133170103 1
-4.7783435583 124.8893357515 -11.1976790346 -0.6006552527 1
-3.0005675554 124.8893357515 -8.9584540545 -2.756769368 1
-1.2227915525 124.8893357515 -9.6753161686 -3.7060628655 1
0.5549844503 124.8893357515 -9.7639724671 -0.6056355467 1
2.3327604532 124.8893357515 -9.2422071916 1.185362968 1
4.1105364561 124.8893357515 -10.9334585401 0.6821943224 1
5.888312459 124.8893357515 -12.4643868055 1.4851872667 1
7.6660884619 124.8893357515 -11.6411194726 1.266336898 1
9.4438644648 124.8893357515 -11.4703766252 -0.8159911586 1
11.2216404676 124.8893357515 -12.196616527 -0.3923482724 1
12.9994164705 124.8893357515 0 -0 0
14.7771924734 124.8893357515 0 -0 0
16.5549684763 124.8893357515 0 -0 0
18.3327444792 124.8893357515 0 -0 0
20.1105204821 124.8893357515 0 -0 0
21.8882964849 124.8893357515 0 -0 0
23.6660724878 124.8893357515 0 -0 0
25.4438484907 124.8893357515 0 -0 0
27.2216244936 124.8893357515 0 -0 0
28.9994004965 124.8893357515 0 -0 0
30.7771764994 124.8893357515 0 -0 0
32.5549525023 124.8893357515 0 -0 0
34.3327285051 124.8893357515 0 -0 0
36.110504508 124.8893357515 -9.0450617214 0.86095509 1
37.8882805109 124.8893357515 -10.3567510844 0.0238241726 1
39.6660565138 124.8893357515 -10.7103519627 -3.0370257029 1
41.4438325167 124.8893357515 -11.733378537 -4.9130424289 1
43.2216085196 124.8893357515 -11.4611754436 -3.4182301258 1
44.9993845224 124.8893357515 -11.3377983717 -2.7224371281 1
46.7771605253 124.8893357515 -9.0607973314 0.3542013392 1
48.5549365282 124.8893357515 -8.7084856782 1.1940519917 1
50.3327125311 124.8893357515 -8.3372418434 2.6178156316 1
52.110488534 124.8893357515 -5.0853570713 4.6669947097 1
53.8882645369 124.8893357515 0 -0 0
-125.6671117544 123.1115597486 0 -0 0
-123.8893357515 123.1115597486 -12.3879339935 -0.4528712077 1
-122.1115597486 123.1115597486 -12.6227495602 -0.1216993133 1
-120.3337837458 123.1115597486 -10.5116876794 0.6233668064 1
-118.5560077429 123.1115597486 -9.7975806217 0.3760651833 1
-116.77823174 123.1115597486 -10.6950402075 0.1692946768 1
-115.0004557371 123.1115597486 -11.1365556383 0.520864584 1
-113.2226797342 123.1115597486 -11.4892911463 0.5733342778 1
-111.4449037313 123.1115597486 -12.5611316667 0.1335849087 1
-109.6671277285 123.1115597486 -12.9192006811 0.2471603382 1
-107.8893517256 123.1115597486 -13.2853405975 1.2608974279 1
-106.1115757227 123.1115597486 -13.8043331561 1.4907856824 1
-104.3337997198 123.1115597486 -12.6019276925 0.9664596174 1
-102.5560237169 123.1115597486 -10.5730053424 -0.0214929712 1
-100.778247714 123.1115597486 -10.8927154962 0.4166139605 1
-99.0004717112 123.1115597486 -9.85533084 1.9003000748 1
-97.2226957083 123.1115597486 -9.3355082324 0.5531305317 1
-95.4449197054 123.1115597486 -11.2590143582 -0.3149771083 1
-93.6671437025 123.1115597486 -11.1485118762 -0.112763041 1
-91.8893676996 123.1115597486 -11.200840285 -1.3710643582 1
-90.1115916967 123.1115597486 -11.6420554853 -0.4500808302 1
-88.3338156939 123.1115597486 -11.3339306965 1.6458635623 1
-86.556039691 123.1115597486 -10.4972766158 2.8543442782 1
-84.7782636881 123.1115597486 -11.1867647731 2.9460382029 1
-83.0004876852 123.1115597486 -10.6546150547 0.7716806699 1
-81.2227116823 123.1115597486 -11.6419142004 -1.3495360658 1
-79.4449356794 123.1115597486 -11.7539354955 -0.3074536854 1
-77.6671596766 123.1115597486 -10.9030292967 1.0251105272 1
-75.8893836737 123.1115597486 -10.0913120075 0.3804803376 1
-74.1116076708 123.1115597486 -10.4866096029 -0.8021099134 1
-72.3338316679 123.1115597486 -10.8640876357 0.3477375533 1
-70.556055665 123.1115597486 -10.0976874903 2.7310378487 1
-68.7782796621 123.1115597486 0 -0 0
-67.0005036592 123.1115597486 0 -0 0
-65.2227276564 123.1115597486 0 -0 0
-63.4449516535 123.1115597486 0 -0 0
-61.6671756506 123.1115597486 0 -0 0
-59.8893996477 123.1115597486 -11.3053558178 -1.2058846052 1
-58.1116236448 123.1115597486 -12.1325261471 -1.2371615583 1
-56.3338476419 123.1115597486 -11.8834408017 -0.9380436843 1
-54.5560716391 123.1115597486 -13.5916640034 -0.7361298475 1
-52.7782956362 123.1115597486 -13.8467362981 1.9490433783 1
-51.0005196333 123.1115597486 -12.1413564557 1.8329601412 1
-49.2227436304 123.1115597486 -12.4987013848 1.5306280349 1
-47.4449676275 123.1115597486 -12.3532485413 2.0282865678 1
-45.6671916246 123.1115597486 -12.0070827829 0.4480851804 1
-43.8894156218 123.1115597486 -12.0185445235 0.5403972267 1
-42.1116396189 123.1115597486 -10.976603428 0.1426271448 1
-40.333863616 123.1115597486 -10.7426179103 0.009271824 1
-38.5560876131 123.1115597486 -11.4212801093 0.797977329 1
-36.7783116102 123.1115597486 -12.7119709985 1.802937092 1
-35.0005356073 123.1115597486 -12.0037449262 1.4452742718 1
-33.2227596045 123.1115597486 -11.2977264312 1.1860340714 1
-31.4449836016 123.1115597486 -10.32715189 2.8197294685 1
-29.6672075987 123.1115597486 -10.9622630069 0.2534121967 1
-27.8894315958 123.1115597486 -12.9319163255 -1.3422598915 1
-26.1116555929 123.1115597486 -11.1104709067 -0.0171837806 1
-24.33387959 123.1115597486 -8.6715043457 1.0308855491 1
-22.5561035872 123.1115597486 -8.1428161083 0.2956563931 1
-20.7783275843 123.1115597486 -10.6005735659 0.6098564342 1
-19.0005515814 123.1115597486 -11.3855526807 2.3682181283 1
-17.2227755785 123.1115597486 -11.6892093333 3.4442971969 1
-15.4449995756 123.1115597486 -12.2532541265 2.9028756544 1
-13.6672235727 123.1115597486 -9.0958006747 0.0788899772 1
-11.8894475698 123.1115597486 -7.7803849214 -1.5264777898 1
-10.111671567 123.1115597486 -9.4228929665 0.1560845351 1
-8.3338955641 123.1115597486 -10.5499758976 0.8713925148 1
-6.5561195612 123.1115597486 -11.6736856508 0.465728137 1
-4.7783435583 123.1115597486 -11.5626533503 0.3055286781 1
-3.0005675554 123.1115597486 -12.5811764673 -1.6061801554 1
-1.2227915525 123.1115597486 -13.0637881543 -2.2418917332 1
0.5549844503 123.1115597486 -10.6018098092 0.5885400692 1
2.3327604532 123.1115597486 -7.8717786156 2.1507982696 1
4.1105364561 123.1115597486 -8.8213193617 1.7764814873 1
5.888312459 123.1115597486 -11.951434178 1.5234401636 1
7.6660884619 123.1115597486 -12.7712400299 0.5967522563 1
9.4438644648 123.1115597486 -14.8259468811 0.9189878783 1
11.2216404676 123.1115597486 -12.4631682229 0.6587410227 1
12.9994164705 123.1115597486 0 -0 0
14.7771924734 123.1115597486 0 -0 0
16.5549684763 123.1115597486 0 -0 0
18.3327444792 123.1115597486 0 -0 0
20.1105204821 123.1115597486 0 -0 0
21.8882964849 123.1115597486 0 -0 0
23.6660724878 123.1115597486 0 -0 0
25.4438484907 123.1115597486 0 -0 0
27.2216244936 123.1115597486 0 -0 0
28.9994004965 123.1115597486 0 -0 0
30.7771764994 123.1115597486 0 -0 0
32.5549525023 123.1115597486 0 -0 0
34.3327285051 123.1115597486 0 -0 0
36.110504508 123.1115597486 -5.4401941927 0.7786566137 1
37.8882805109 123.1115597486 -9.856160889 0.963987131 1
39.6660565138 123.1115597486 -10.2244024189 -1.3368204214 1
41.4438325167 123.1115597486 -10.4103157365 -1.2243752714 1
43.2216085196 123.1115597486 -7.1832794528 -0.1879796098 1
44.9993845224 123.1115597486 -9.8813449292 -1.8508856677 1
46.7771605253 123.1115597486 -10.4611429929 -0.7124116385 1
48.5549365282 123.1115597486 -7.7754399486 1.0799114225 1
50.3327125311 123.1115597486 -9.2093054617 2.7864745262 1
52.110488534 123.1115597486 -5.9276095677 4.1601526557 1
53.8882645369 123.1115597486 0 -0 0
-125.6671117544 121.3337837458 0 -0 0
-123.8893357515 121.3337837458 -11.5561189219 -1.7465290805 1
-122.1115597486 121.3337837458 -13.1143328409 -0.5132705186 1
-120.3337837458 121.3337837458 -12.1775077392 1.1725590205 1
-118.5560077429 121.3337837458 -11.1650422139 0.7191403337 1
-116.77823174 121.3337837458 -10.6401863304 -0.2353630458 1
-115.0004557371 121.3337837458 -10.7244451352 0.3812750654 1
-113.2226797342 121.3337837458 -11.1896964356 0.8481864638 1
-111.4449037313 121.3337837458 -11.3097886327 0.5670294375 1
-109.6671277285 121.3337837458 -12.811470916 1.022673362 1
-107.8893517256 121.3337837458 -13.6556130984 0.9685788915 1
-106.1115757227 121.3337837458 -12.9335411023 -0.7228314027 1
-104.3337997198 121.3337837458 -11.6695000845 -1.5068391834 1
-102.5560237169 121.3337837458 -11.1121133441 -1.6422431358 1
-100.778247714 121.3337837458 -11.7698477116 0.0523990513 1
-99.0004717112 121.3337837458 -10.1213527174 0.9811709115 1
-97.2226957083 121.3337837458 -9.8014482968 0.1778247549 1
-95.4449197054 121.3337837458 -10.1262447083 0.1805621506 1
-93.6671437025 121.3337837458 -10.6238855807 -0.0067993376 1
-91.8893676996 121.3337837458 -11.8245603038 -1.333747474 1
-90.1115916967 121.3337837458 -10.768102181 -0.5564683884 1
-88.3338156939 121.3337837458 -11.0637409135 1.5864179247 1
-86.556039691 121.3337837458 -11.5984337608 2.6490396029 1
-84.7782636881 121.3337837458 -12.1668760476 3.6796955639 1
-83.0004876852 121.3337837458 -11.5461406732 2.2378827731 1
-81.2227116823 121.3337837458 -11.3260010794 -0.9237209237 1
-79.4449356794 121.3337837458 -12.5058009529 -1.0264174129 1
-77.6671596766 121.3337837458 -13.6187024084 0.4725451353 1
-75.8893836737 121.3337837458 -11.9247136641 0.9165507131 1
-74.1116076708 121.3337837458 -10.9333702371 -0.3657513829 1
-72.3338316679 121.3337837458 -11.3496663064 -0.8398329918 1
-70.556055665 121.3337837458 -11.0968369102 0.7799634994 1
-68.7782796621 121.3337837458 0 -0 0
-67.0005036592 121.3337837458 0 -0 0
-65.2227276564 121.3337837458 0 -0 0
-63.4449516535 121.3337837458 0 -0 0
-61.6671756506 121.3337837458 0 -0 0
-59.8893996477 121.3337837458 -13.127384037 -1.7828569702 1
-58.1116236448 121.3337837458 -12.894705405 -2.1515576761 1
-56.3338476419 121.3337837458 -12.4616847311 -1.2990796823 1
-54.5560716391 121.3337837458 -11.9305240072 -0.3034447253 1
-52.7782956362 121.3337837458 -12.8492293156 -0.3088665348 1
-51.0005196333 121.3337837458 -11.8396777922 0.7451191016 1
-49.2227436304 121.3337837458 -11.7679050437 0.9930565069 1
-47.4449676275 121.3337837458 -12.3370714159 1.796473306 1
-45.6671916246 121.3337837458 -10.469814356 1.9420850951 1
-43.8894156218 121.3337837458 -10.3089084724 0.1274566746 1
-42.1116396189 121.3337837458 -10.7311561698 -0.0730619735 1
-40.333863616 121.3337837458 -10.8592486265 0.2823226271 1
-38.5560876131 121.3337837458 -11.6998233643 0.7388142613 1
-36.7783116102 121.3337837458 -11.7759759458 2.4154602794 1
-35.0005356073 121.3337837458 -11.3738790127 1.6932999802 1
-33.2227596045 121.3337837458 -11.0029883902 -0.3854959529 1
-31.4449836016 121.3337837458 -11.6143812981 0.9972597338 1
-29.6672075987 121.3337837458 -11.1146917942 0.2984114494 1
-27.8894315958 121.3337837458 -10.9640467292 0.1035795201 1
-26.1116555929 121.3337837458 -10.7606494005 1.4220858814 1
-24.33387959 121.3337837458 -8.9639994883 2.3111919953 1
-22.5561035872 121.3337837458 -10.1400906322 1.0751960377 1
-20.7783275843 121.3337837458 -12.3394909204 0.2981288795 1
-19.0005515814 121.3337837458 -11.6864189558 1.2567295222 1
-17.2227755785 121.3337837458 -11.3619404354 3.3165049706 1
-15.4449995756 121.3337837458 -10.9784754535 4.4086375402 1
-13.6672235727 121.3337837458 -8.6927853895 1.7971797307 1
-11.8894475698 121.3337837458 -9.9264678062 0.3200457055 1
-10.111671567 121.3337837458 -11.4213154306 1.7625119391 1
-8.3338955641 121.3337837458 -9.8942371798 2.3132582875 1
-6.5561195612 121.3337837458 -9.1886778607 1.0242981388 1
-4.7783435583 121.3337837458 -9.7080942741 -1.1839854398 1
-3.0005675554 121.3337837458 -11.9104438854 -0.9713516084 1
-1.2227915525 121.3337837458 -13.0823494631 0.0025961107 1
0.5549844503 121.3337837458 -11.5676866262 1.4652837511 1
2.3327604532 121.3337837458 -9.0563645164 3.8150288738 1
4.1105364561 121.3337837458 -8.7835786227 3.4898086075 1
5.888312459 121.3337837458 -10.7642698271 1.2116066452 1
7.6660884619 121.3337837458 -11.2527095178 -0.1897986534 1
9.4438644648 121.3337837458 -13.3655197997 1.1563465739 1
11.2216404676 121.3337837458 -9.0572652079 0.8512417506 1
12.9994164705 121.3337837458 0 -0 0
14.7771924734 121.3337837458 0 -0 0
16.5549684763 121.3337837458 0 -0 0
18.3327444792 121.3337837458 0 -0 0
20.1105204821 121.3337837458 0 -0 0
21.8882964849 121.3337837458 0 -0 0
23.6660724878 121.3337837458 0 -0 0
25.4438484907 121.3337837458 0 -0 0
27.2216244936 121.3337837458 0 -0 0
28.9994004965 121.3337837458 0 -0 0
30.7771764994 121.3337837458 0 -0 0
32.5549525023 121.3337837458 0 -0 0
34.3327285051 121.3337837458 0 -0 0
36.110504508 121.3337837458 -5.5071102714 2.5082315017 1
37.8882805109 121.3337837458 -5.0487642724 3.2930516709 1
39.6660565138 121.3337837458 -6.7628154778 1.9736446181 1
41.4438325167 121.3337837458 -11.0158806408 0.252705772 1
43.2216085196 121.3337837458 -6.2356107322 2.042997862 1
44.9993845224 121.3337837458 -5.4467639423 0.3332911684 1
46.7771605253 121.3337837458 -8.3466902736 -1.1434543233 1
48.5549365282 121.3337837458 -5.7623591722 0.5882045175 1
50.3327125311 121.3337837458 -6.8116117632 1.3805127884 1
52.110488534 121.3337837458 -7.4335833809 2.8028282578 1
53.8882645369 121.3337837458 0 -0 0
-125.6671117544 119.5560077429 0 -0 0
-123.8893357515 119.5560077429 -10.3407858865 -0.3762594501 1
-122.1115597486 119.5560077429 -12.5819888556 -0.096797843 1
-120.3337837458 119.5560077429 -12.5165386082 1.2205075963 1
-118.5560077429 119.5560077429 -11.0477403943 0.49871817 1
-116.77823174 119.5560077429 -11.3579491359 -0.6658229303 1
-115.0004557371 119.5560077429 -11.7193030251 0.5775728259 1
-113.2226797342 119.5560077429 -11.456866253 0.6741940628 1
-111.4449037313 119.5560077429 -12.2151425145 -0.9922264579 1
-109.6671277285 119.5560077429 -13.1699814458 -1.106278724 1
-107.8893517256 119.5560077429 -11.5545294663 -1.1399575211 1
-106.1115757227 119.5560077429 -11.3439266058 -0.7757602725 1
-104.3337997198 119.5560077429 -11.52487729 -0.4546372694 1
-102.5560237169 119.5560077429 -11.0770216976 -0.4943206763 1
-100.778247714 119.5560077429 -11.3892790709 0.288185952 1
-99.0004717112 119.5560077429 -10.9327521155 -0.6326916123 1
-97.2226957083 119.5560077429 -10.4744414377 -1.3280607552 1
-95.4449197054 119.5560077429 -9.3808606975 -0.3964808569 1
-93.6671437025 119.5560077429 -10.7406046 0.4045694195 1
-91.8893676996 119.5560077429 -12.3362943487 -0.1177963169 1
-90.1115916967 119.5560077429 -11.85306454 -0.1612767566 1
-88.3338156939 119.5560077429 -12.2674356021 0.8801698416 1
-86.556039691 119.5560077429 -12.140650031 1.9067462 1
-84.7782636881 119.5560077429 -11.6338256377 1.5632471949 1
-83.0004876852 119.5560077429 -13.3844166602 1.083673134 1
-81.2227116823 119.5560077429 -13.1014229297 -0.3227654405 1
-79.4449356794 119.5560077429 -13.0709407043 -1.7381226267 1
-77.6671596766 119.5560077429 -12.6809942758 -1.0545684368 1
-75.8893836737 119.5560077429 -11.4136330621 -0.6361354327 1
-74.1116076708 119.5560077429 -11.6962912409 -0.6604717632 1
-72.3338316679 119.5560077429 -12.4556271394 -0.5624553376 1
-70.556055665 119.5560077429 -12.1999897049 0.2283341202 1
-68.7782796621 119.5560077429 0 -0 0
-67.0005036592 119.5560077429 0 -0 0
-65.2227276564 119.5560077429 0 -0 0
-63.4449516535 119.5560077429 0 -0 0
-61.6671756506 119.5560077429 0 -0 0
-59.8893996477 119.5560077429 -12.0923305823 -0.9239858329 1
-58.1116236448 119.5560077429 -13.1666259285 -0.7493399891 1
-56.3338476419 119.5560077429 -11.4110546119 1.3354782144 1
-54.5560716391 119.5560077429 -11.7658387515 1.8250481847 1
-52.7782956362 119.5560077429 -14.4994197291 0.5976529477 1
-51.0005196333 119.5560077429 -13.8313185792 0.2752053983 1
-49.2227436304 119.5560077429 -12.0960393119 0.9035701594 1
-47.4449676275 119.5560077429 -11.075803115 1.5935528141 1
-45.6671916246 119.5560077429 -10.7622741773 2.2409557205 1
-43.8894156218 119.5560077429 -11.7908815067 0.6810993642 1
-42.1116396189 119.5560077429 -12.237589159 -0.4952743496 1
-40.333863616 119.5560077429 -10.5193170661 0.1953440872 1
-38.5560876131 119.5560077429 -10.6386498567 2.1278041459 1
-36.7783116102 119.5560077429 -11.2800658139 3.7458698967 1
-35.0005356073 119.5560077429 -12.1104150543 2.7821300144 1
-33.2227596045 119.5560077429 -12.6329397364 1.2433074531 1
-31.4449836016 119.5560077429 -15.2972204519 2.0104140232 1
-29.6672075987 119.5560077429 -13.5105311278 4.0587100703 1
-27.8894315958 119.5560077429 -10.5195113329 2.0979400422 1
-26.1116555929 119.5560077429 -9.920480857 1.1793583581 1
-24.33387959 119.5560077429 -10.936973003 2.360482778 1
-22.5561035872 119.5560077429 -13.3942359634 1.5267426991 1
-20.7783275843 119.5560077429 -11.8384945308 -0.0391535884 1
-19.0005515814 119.5560077429 -11.4630298085 -0.5885577299 1
-17.2227755785 119.5560077429 -11.1801950235 1.6121317834 1
-15.4449995756 119.5560077429 -9.2886546149 4.2934726552 1
-13.6672235727 119.5560077429 -7.5381342349 2.8632275687 1
-11.8894475698 119.5560077429 -9.6604635895 1.3306745266 1
-10.111671567 119.5560077429 -11.339122918 2.2206636713 1
-8.3338955641 119.5560077429 -11.790086779 2.9360246329 1
-6.5561195612 119.5560077429 -11.2188894358 1.8688465155 1
-4.7783435583 119.5560077429 -8.8536559519 0.1463711956 1
-3.0005675554 119.5560077429 -8.0259028222 0.8810175512 1
-1.2227915525 119.5560077429 -10.1131935122 1.584051402 1
0.5549844503 119.5560077429 -11.9308948802 2.0235358618 1
2.3327604532 119.5560077429 -11.2691162313 3.3105710032 1
4.1105364561 119.5560077429 -9.6599690922 1.8573847749 1
5.888312459 119.5560077429 -9.0832439759 -0.9795991166 1
7.6660884619 119.5560077429 -11.0749024236 -1.5151220129 1
9.4438644648 119.5560077429 -12.135669737 -0.0836230226 1
11.2216404676 119.5560077429 -9.0864052263 1.2308213967 1
12.9994164705 119.5560077429 0 -0 0
14.7771924734 119.5560077429 0 -0 0
16.5549684763 119.5560077429 0 -0 0
18.3327444792 119.5560077429 0 -0 0
20.1105204821 119.5560077429 0 -0 0
21.8882964849 119.5560077429 0 -0 0
23.6660724878 119.5560077429 0 -0 0
25.4438484907 119.5560077429 0 -0 0
27.2216244936 119.5560077429 0 -0 0
28.9994004965 119.5560077429 0 -0 0
30.7771764994 119.5560077429 0 -0 0
32.5549525023 119.5560077429 0 -0 0
34.3327285051 119.5560077429 0 -0 0
36.110504508 119.5560077429 -5.4393641437 1.5904798667 1
37.8882805109 119.5560077429 -4.619134437 1.6980506862 1
39.6660565138 119.5560077429 -8.0231654265 1.596555119 1
41.4438325167 119.5560077429 -12.8044066691 -0.0526286394 1
43.2216085196 119.5560077429 -8.4084317914 0.6771257253 1
44.9993845224 119.5560077429 -6.8147553531 2.8878111479 1
46.7771605253 119.5560077429 -6.9173635392 1.212860549 1
48.5549365282 119.5560077429 -6.7796107248 0.536458909 1
50.3327125311 119.5560077429 -7.3913391844 -0.2446525305 1
52.110488534 119.5560077429 -7.1005394611 0.9007091394 1
53.8882645369 119.5560077429 0 -0 0
-125.6671117544 117.77823174 0 -0 0
-123.8893357515 117.77823174 -11.4325299225 0.4879805147 1
-122.1115597486 117.77823174 -13.0163340758 -0.9068373736 1
-120.3337837458 117.77823174 -11.9689005284 -1.50616808 1
-118.5560077429 117.77823174 -11.9186207512 -1.3873474473 1
-116.77823174 117.77823174 -12.5952519792 -0.5225600033 1
-115.0004557371 117.77823174 -12.7708514963 0.3913592779 1
-113.2226797342 117.77823174 -12.3290005138 -0.1899575989 1
-111.4449037313 117.77823174 -14.0442703018 -2.1008363834 1
-109.6671277285 117.77823174 -13.7202509575 -2.5798453046 1
-107.8893517256 117.77823174 -10.7449491118 -1.2454620484 1
-106.1115757227 117.77823174 -10.3785266255 -0.3899640891 1
-104.3337997198 117.77823174 -11.2255474885 -0.1100609666 1
-102.5560237169 117.77823174 -10.0905349403 -0.1755288747 1
-100.778247714 117.77823174 -9.5837811894 0.6217950115 1
-99.0004717112 117.77823174 -11.0973667287 0.1250724912 1
-97.2226957083 117.77823174 -10.5757074169 -0.8304198829 1
-95.4449197054 117.77823174 -9.7723082784 -0.1764119055 1
-93.6671437025 117.77823174 -10.2266099961 0.4561384219 1
-91.8893676996 117.77823174 -12.0909000723 -0.2556197738 1
-90.1115916967 117.77823174 -11.8655152752 -0.5046521374 1
-88.3338156939 117.77823174 -12.0492210156 0.8208654889 1
-86.556039691 117.77823174 -11.9703663597 0.6852672698 1
-84.7782636881 117.77823174 -11.3761042504 -1.0679728452 1
-83.0004876852 117.77823174 -12.1524296627 -0.7352114954 1
-81.2227116823 117.77823174 -12.4502936329 -0.3577687839 1
-79.4449356794 117.77823174 -11.4321413889 -1.1583069024 1
-77.6671596766 117.77823174 -11.518925662 -0.8319033747 1
-75.8893836737 117.77823174 -12.229836148 -0.3278870195 1
-74.1116076708 117.77823174 -12.5157438804 -0.4900468069 1
-72.3338316679 117.77823174 -12.4573755405 0.4813754439 1
-70.556055665 117.77823174 -12.2963107113 1.8666742595 1
-68.7782796621 117.77823174 0 -0 0
-67.0005036592 117.77823174 0 -0 0
-65.2227276564 117.77823174 0 -0 0
-63.4449516535 117.77823174 0 -0 0
-61.6671756506 117.77823174 0 -0 0
-59.8893996477 117.77823174 -12.0313308104 2.5456896709 1
-58.1116236448 117.77823174 -11.6168361239 1.5687219862 1
-56.3338476419 117.77823174 -10.1126460331 2.0237477892 1
-54.5560716391 117.77823174 -12.0335383875 2.5519768506 1
-52.7782956362 117.77823174 -14.9192655826 1.2999097313 1
-51.0005196333 117.77823174 -14.5226081195 0.1681997185 1
-49.2227436304 117.77823174 -12.0611419322 -0.4160488207 1
-47.4449676275 117.77823174 -11.5313940578 0.6225720787 1
-45.6671916246 117.77823174 -12.1870797937 1.3416770911 1
-43.8894156218 117.77823174 -13.4143514064 0.334280163 1
-42.1116396189 117.77823174 -15.2932997949 -0.8132007811 1
-40.333863616 117.77823174 -13.7187321444 -1.0164391642 1
-38.5560876131 117.77823174 -12.0483909666 1.5309106047 1
-36.7783116102 117.77823174 -12.3030217459 3.3776813487 1
-35.0005356073 117.77823174 -12.0209463674 3.4674149448 1
-33.2227596045 117.77823174 -12.3420163887 3.4216209643 1
-31.4449836016 117.77823174 -16.486133204 0.782383004 1
-29.6672075987 117.77823174 -13.3925405441 2.9476453191 1
-27.8894315958 117.77823174 -11.9137640814 2.6855087775 1
-26.1116555929 117.77823174 -10.4303958583 0.4426457103 1
-24.33387959 117.77823174 -11.9553724956 1.5859940699 1
-22.5561035872 117.77823174 -15.6283923463 0.9170275498 1
-20.7783275843 117.77823174 -13.2178947003 1.0987729617 1
-19.0005515814 117.77823174 -10.6751896737 1.6458282411 1
-17.2227755785 117.77823174 -8.8555103167 1.0799290831 1
-15.4449995756 117.77823174 -8.5545910596 0.7779855103 1
-13.6672235727 117.77823174 -8.6753896815 -0.7193346005 1
-11.8894475698 117.77823174 -9.9813570046 -0.9598192253 1
-10.111671567 117.77823174 -9.8720377839 0.5165553934 1