TITLE = "B00010"
VARIABLES = "x", "y", "Vx", "Vy", "isValid"
ZONE T="Frame 0", I=102, J=78, F=POINT
-125.6671117544 126.6671117544 0 -0 0
-123.8893357515 126.6671117544 0 -0 0
-122.1115597486 126.6671117544 0 -0 0
-120.3337837458 126.6671117544 0 -0 0
-118.5560077429 126.6671117544 0 -0 0
-116.77823174 126.6671117544 0 -0 0
-115.0004557371 126.6671117544 0 -0 0
-113.2226797342 126.6671117544 0 -0 0
-111.4449037313 126.6671117544 0 -0 0
-109.6671277285 126.6671117544 0 -0 0
-107.8893517256 126.6671117544 0 -0 0
-106.1115757227 126.6671117544 0 -0 0
-104.3337997198 126.6671117544 0 -0 0
-102.5560237169 126.6671117544 0 -0 0
-100.778247714 126.6671117544 0 -0 0
-99.0004717112 126.6671117544 0 -0 0
-97.2226957083 126.6671117544 0 -0 0
-95.4449197054 126.6671117544 0 -0 0
-93.6671437025 126.6671117544 0 -0 0
-91.8893676996 126.6671117544 0 -0 0
-90.1115916967 126.6671117544 0 -0 0
-88.3338156939 126.6671117544 0 -0 0
-86.556039691 126.6671117544 0 -0 0
-84.7782636881 126.6671117544 0 -0 0
-83.0004876852 126.6671117544 0 -0 0
-81.2227116823 126.6671117544 0 -0 0
-79.4449356794 126.6671117544 0 -0 0
-77.6671596766 126.6671117544 0 -0 0
-75.8893836737 126.6671117544 0 -0 0
-74.1116076708 126.6671117544 0 -0 0
-72.3338316679 126.6671117544 0 -0 0
-70.556055665 126.6671117544 0 -0 0
-68.7782796621 126.6671117544 0 -0 0
-67.0005036592 126.6671117544 0 -0 0
-65.2227276564 126.6671117544 0 -0 0
-63.4449516535 126.6671117544 0 -0 0
-61.6671756506 126.6671117544 0 -0 0
-59.8893996477 126.6671117544 0 -0 0
-58.1116236448 126.6671117544 0 -0 0
-56.3338476419 126.6671117544 0 -0 0
-54.5560716391 126.6671117544 0 -0 0
-52.7782956362 126.6671117544 0 -0 0
-51.0005196333 126.6671117544 0 -0 0
-49.2227436304 126.6671117544 0 -0 0
-47.4449676275 126.6671117544 0 -0 0
-45.6671916246 126.6671117544 0 -0 0
-43.8894156218 126.6671117544 0 -0 0
-42.1116396189 126.6671117544 0 -0 0
-40.333863616 126.6671117544 0 -0 0
-38.5560876131 126.6671117544 0 -0 0
-36.7783116102 126.6671117544 0 -0 0
-35.0005356073 126.6671117544 0 -0 0
-33.2227596045 126.6671117544 0 -0 0
-31.4449836016 126.6671117544 0 -0 0
-29.6672075987 126.6671117544 0 -0 0
-27.8894315958 126.6671117544 0 -0 0
-26.1116555929 126.6671117544 0 -0 0
-24.33387959 126.6671117544 0 -0 0
-22.5561035872 126.6671117544 0 -0 0
-20.7783275843 126.6671117544 0 -0 0
-19.0005515814 126.6671117544 0 -0 0
-17.2227755785 126.6671117544 0 -0 0
-15.4449995756 126.6671117544 0 -0 0
-13.6672235727 126.6671117544 0 -0 0
-11.8894475698 126.6671117544 0 -0 0
-10.111671567 126.6671117544 0 -0 0
-8.3338955641 126.6671117544 0 -0 0
-6.5561195612 126.6671117544 0 -0 0
-4.7783435583 126.6671117544 0 -0 0
-3.0005675554 126.6671117544 0 -0 0
-1.2227915525 126.6671117544 0 -0 0
0.5549844503 126.6671117544 0 -0 0
2.3327604532 126.6671117544 0 -0 0
4.1105364561 126.6671117544 0 -0 0
5.888312459 126.6671117544 0 -0 0
7.6660884619 126.6671117544 0 -0 0
9.4438644648 126.6671117544 0 -0 0
11.2216404676 126.6671117544 0 -0 0
12.9994164705 126.6671117544 0 -0 0
14.7771924734 126.6671117544 0 -0 0
16.5549684763 126.6671117544 0 -0 0
18.3327444792 126.6671117544 0 -0 0
20.1105204821 126.6671117544 0 -0 0
21.8882964849 126.6671117544 0 -0 0
23.6660724878 126.6671117544 0 -0 0
25.4438484907 126.6671117544 0 -0 0
27.2216244936 126.6671117544 0 -0 0
28.9994004965 126.6671117544 0 -0 0
30.7771764994 126.6671117544 0 -0 0
32.5549525023 126.6671117544 0 -0 0
34.3327285051 126.6671117544 0 -0 0
36.110504508 126.6671117544 0 -0 0
37.8882805109 126.6671117544 0 -0 0
39.6660565138 126.6671117544 0 -0 0
41.4438325167 126.6671117544 0 -0 0
43.2216085196 126.6671117544 0 -0 0
44.9993845224 126.6671117544 0 -0 0
46.7771605253 126.6671117544 0 -0 0
48.5549365282 126.6671117544 0 -0 0
50.3327125311 126.6671117544 0 -0 0
52.110488534 126.6671117544 0 -0 0
53.8882645369 126.6671117544 0 -0 0
-125.6671117544 124.8893357515 0 -0 0
-123.8893357515 124.8893357515 -10.279489167 -0.2592330512 1
-122.1115597486 124.8893357515 -10.0093303984 -0.463548263 1
-120.3337837458 124.8893357515 -10.078242607 0.2324342567 1
-118.5560077429 124.8893357515 -9.9551743521 0.2638109698 1
-116.77823174 124.8893357515 -10.2478890711 -0.3640154068 1
-115.0004557371 124.8893357515 -10.228486257 0.2930311781 1
-113.2226797342 124.8893357515 -9.5934829872 -0.3384065561 1
-111.4449037313 124.8893357515 -10.0793996161 0.1478938332 1
-109.6671277285 124.8893357515 -9.9178321687 -0.1358798399 1
-107.8893517256 124.8893357515 -10.0289981217 -0.1311286563 1
-106.1115757227 124.8893357515 -10.224511186 -0.1155061692 1
-104.3337997198 124.8893357515 -10.2219523057 -0.4643945407 1
-102.5560237169 124.8893357515 -10.1268269669 -0.1391747384 1
-100.778247714 124.8893357515 -9.8393359724 -0.1107907842 1
-99.0004717112 124.8893357515 -9.6262014299 0.3320716447 1
-97.2226957083 124.8893357515 -9.6653607476 0.0168539573 1
-95.4449197054 124.8893357515 -9.530387327 -0.2606907682 1
-93.6671437025 124.8893357515 -9.410112791 -0.7403025564 1
-91.8893676996 124.8893357515 -9.9680532384 -0.8309473487 1
-90.1115916967 124.8893357515 -9.8294011588 0.1509252544 1
-88.3338156939 124.8893357515 -9.8369045349 0.1315152807 1
-86.556039691 124.8893357515 -9.9504990615 -0.3354438681 1
-84.7782636881 124.8893357515 -10.4159732864 -0.239266052 1
-83.0004876852 124.8893357515 -9.8288570209 0.275630219 1
-81.2227116823 124.8893357515 -10.2890616993 0.0204309484 1
-79.4449356794 124.8893357515 -9.8616241496 0.0421978987 1
-77.6671596766 124.8893357515 -9.7476129278 -0.2086969543 1
-75.8893836737 124.8893357515 -10.1110355106 0.1543962818 1
-74.1116076708 124.8893357515 -10.4801801336 0.0539312314 1
-72.3338316679 124.8893357515 0 -0 0
-70.556055665 124.8893357515 0 -0 0
-68.7782796621 124.8893357515 0 -0 0
-67.0005036592 124.8893357515 0 -0 0
-65.2227276564 124.8893357515 0 -0 0
-63.4449516535 124.8893357515 0 -0 0
-61.6671756506 124.8893357515 0 -0 0
-59.8893996477 124.8893357515 0 -0 0
-58.1116236448 124.8893357515 -9.8790752267 0.2473006786 1
-56.3338476419 124.8893357515 -10.1248780939 0.3106197217 1
-54.5560716391 124.8893357515 -10.4157427438 0.4563756655 1
-52.7782956362 124.8893357515 -10.4338983364 0.1521524287 1
-51.0005196333 124.8893357515 -10.2426266842 0.044115269 1
-49.2227436304 124.8893357515 -9.9470480813 0.4185638052 1
-47.4449676275 124.8893357515 -10.6566490854 -0.1548545033 1
-45.6671916246 124.8893357515 0 -0 0
-43.8894156218 124.8893357515 -10.4296025104 -0.0719894519 1
-42.1116396189 124.8893357515 -10.3416068108 0.3279992017 1
-40.333863616 124.8893357515 -9.9688823328 -0.0624670376 1
-38.5560876131 124.8893357515 -10.5863944312 0.2554226536 1
-36.7783116102 124.8893357515 -11.0293384808 0.4461616233 1
-35.0005356073 124.8893357515 -10.418354606 0.2456825841 1
-33.2227596045 124.8893357515 -10.6660712637 0.3396394582 1
-31.4449836016 124.8893357515 -9.9840065042 0.2741367035 1
-29.6672075987 124.8893357515 -9.7130243689 0.7662894398 1
-27.8894315958 124.8893357515 -9.5455902552 1.1281540697 1
-26.1116555929 124.8893357515 -9.9304003236 0.1659348704 1
-24.33387959 124.8893357515 -9.9254715793 -0.5217409538 1
-22.5561035872 124.8893357515 -9.7660176783 -0.476236701 1
-20.7783275843 124.8893357515 -9.6034736465 -0.4805497103 1
-19.0005515814 124.8893357515 -10.4761377614 0.3149241393 1
-17.2227755785 124.8893357515 -10.2665215003 -0.3386542821 1
-15.4449995756 124.8893357515 -10.4721784417 0.2293111913 1
-13.6672235727 124.8893357515 -10.7230360642 -0.8244291487 1
-11.8894475698 124.8893357515 -10.1455152419 1.0576581333 1
-10.111671567 124.8893357515 -10.7633187405 0.0388958404 1
-8.3338955641 124.8893357515 -10.0782440389 0.2881539837 1
-6.5561195612 124.8893357515 -11.0378950502 0.0180968829 1
-4.7783435583 124.8893357515 -11.1190317475 0.0941015002 1
-3.0005675554 124.8893357515 -10.8524363666 0.2470787275 1
-1.2227915525 124.8893357515 -10.1798703943 1.1598758807 1
0.5549844503 124.8893357515 -11.1941943829 0.040954973 1
2.3327604532 124.8893357515 -10.6892286296 -0.3327747282 1
4.1105364561 124.8893357515 -9.8500826971 -0.3253629965 1
5.888312459 124.8893357515 -11.0403823334 0.0185508086 1
7.6660884619 124.8893357515 -10.5707504649 -0.200335845 1
9.4438644648 124.8893357515 -9.601511886 0.0766876536 1
11.2216404676 124.8893357515 0 -0 0
12.9994164705 124.8893357515 0 -0 0
14.7771924734 124.8893357515 0 -0 0
16.5549684763 124.8893357515 0 -0 0
18.3327444792 124.8893357515 0 -0 0
20.1105204821 124.8893357515 0 -0 0
21.8882964849 124.8893357515 0 -0 0
23.6660724878 124.8893357515 0 -0 0
25.4438484907 124.8893357515 0 -0 0
27.2216244936 124.8893357515 0 -0 0
28.9994004965 124.8893357515 0 -0 0
30.7771764994 124.8893357515 0 -0 0
32.5549525023 124.8893357515 0 -0 0
34.3327285051 124.8893357515 0 -0 0
36.110504508 124.8893357515 0 -0 0
37.8882805109 124.8893357515 -10.2667907054 0.3826363805 1
39.6660565138 124.8893357515 -10.0925391158 0.7987444051 1
41.4438325167 124.8893357515 -9.9137611576 -0.0186309973 1
43.2216085196 124.8893357515 -9.6794854235 0.5650242645 1
44.9993845224 124.8893357515 -9.616570188 0.3144515985 1
46.7771605253 124.8893357515 -9.4987414089 0.1241135725 1
48.5549365282 124.8893357515 -9.924121258 0.8260615626 1
50.3327125311 124.8893357515 -9.8486894175 0.0656860432 1
52.110488534 124.8893357515 -9.8682640646 0.3101844113 1
53.8882645369 124.8893357515 0 -0 0
-125.6671117544 123.1115597486 0 -0 0
-123.8893357515 123.1115597486 0 -0 0
-122.1115597486 123.1115597486 0 -0 0
-120.3337837458 123.1115597486 -9.9424544114 0.2504538148 1
-118.5560077429 123.1115597486 -9.8055621885 0.0068317953 1
-116.77823174 123.1115597486 -10.2666260321 0.0376801217 1
-115.0004557371 123.1115597486 -9.8702759431 0.0300765097 1
-113.2226797342 123.1115597486 -9.7677574878 -0.2236077663 1
-111.4449037313 123.1115597486 -9.8071731232 -0.2313330934 1
-109.6671277285 123.1115597486 -10.101892561 -0.4561093243 1
-107.8893517256 123.1115597486 -10.0147030448 -0.4785220804 1
-106.1115757227 123.1115597486 -10.0582126023 -0.2703979029 1
-104.3337997198 123.1115597486 -10.070836603 -0.1709939215 1
-102.5560237169 123.1115597486 -10.3058340359 -0.4807029281 1
-100.778247714 123.1115597486 -9.9382760046 -0.1668899758 1
-99.0004717112 123.1115597486 -9.8685719321 0.4470680425 1
-97.2226957083 123.1115597486 -9.9316890714 0.4501352623 1
-95.4449197054 123.1115597486 -9.7635203715 0.129039453 1
-93.6671437025 123.1115597486 -9.4564848006 -0.1220086178 1
-91.8893676996 123.1115597486 -9.9066515656 -0.2818104807 1
-90.1115916967 123.1115597486 -10.1740094557 0.1408372231 1
-88.3338156939 123.1115597486 -10.0884237145 0.2499655226 1
-86.556039691 123.1115597486 -10.1222232734 -0.1454251652 1
-84.7782636881 123.1115597486 -10.8627649642 -0.4446222856 1
-83.0004876852 123.1115597486 -10.5585009171 -0.4000430674 1
-81.2227116823 123.1115597486 -10.7003125767 -0.0321657131 1
-79.4449356794 123.1115597486 -9.7592302732 0.2629675559 1
-77.6671596766 123.1115597486 -9.7749415408 -0.1087674501 1
-75.8893836737 123.1115597486 -9.9943694684 0.3435815945 1
-74.1116076708 123.1115597486 -9.8471386243 0.2767729087 1
-72.3338316679 123.1115597486 0 -0 0
-70.556055665 123.1115597486 0 -0 0
-68.7782796621 123.1115597486 0 -0 0
-67.0005036592 123.1115597486 0 -0 0
-65.2227276564 123.1115597486 0 -0 0
-63.4449516535 123.1115597486 0 -0 0
-61.6671756506 123.1115597486 0 -0 0
-59.8893996477 123.1115597486 0 -0 0
-58.1116236448 123.1115597486 -9.9978290403 0.2906799294 1
-56.3338476419 123.1115597486 -9.6736917862 0.6577210296 1
-54.5560716391 123.1115597486 -10.1117371622 -0.1138923705 1
-52.7782956362 123.1115597486 -10.4739397304 -0.3386786251 1
-51.0005196333 123.1115597486 -10.0625571143 -0.4590734442 1
-49.2227436304 123.1115597486 -10.04691458 -0.2846242467 1
-47.4449676275 123.1115597486 -11.0329648739 0.1758811396 1
-45.6671916246 123.1115597486 -10.2067508095 0.3700667936 1
-43.8894156218 123.1115597486 -10.9685117327 0.3693651421 1
-42.1116396189 123.1115597486 -10.6618878451 0.6223721095 1
-40.333863616 123.1115597486 -9.4445209252 0.2278162438 1
-38.5560876131 123.1115597486 -9.90683915 0.3705164234 1
-36.7783116102 123.1115597486 -10.1372715519 -0.2179057733 1
-35.0005356073 123.1115597486 -10.7740762047 0.2236106302 1
-33.2227596045 123.1115597486 -10.7251610661 0.2098553954 1
-31.4449836016 123.1115597486 -9.4035502008 0.027401642 1
-29.6672075987 123.1115597486 0 -0 0
-27.8894315958 123.1115597486 -9.4968254705 -1.9651370539 1
-26.1116555929 123.1115597486 -9.0952101308 -0.5153559244 1
-24.33387959 123.1115597486 -9.484864459 -0.4109344182 1
-22.5561035872 123.1115597486 -10.2780901597 -0.3020409572 1
-20.7783275843 123.1115597486 -10.3494423974 0.0883980752 1
-19.0005515814 123.1115597486 -10.9256801997 0.3141451629 1
-17.2227755785 123.1115597486 -10.2439039765 0.009626946 1
-15.4449995756 123.1115597486 -10.5850283585 0.3352204852 1
-13.6672235727 123.1115597486 -10.4103171156 0.0534357795 1
-11.8894475698 123.1115597486 -10.6576736398 0.722315933 1
-10.111671567 123.1115597486 -10.6267594441 0.5266109885 1
-8.3338955641 123.1115597486 -10.913921808 1.1729437834 1
-6.5561195612 123.1115597486 -9.9620677209 -0.4055159497 1
-4.7783435583 123.1115597486 -9.9752616344 -0.3566466333 1
-3.0005675554 123.1115597486 -10.8043639258 -0.1442481089 1
-1.2227915525 123.1115597486 -10.402776509 0.2305412294 1
0.5549844503 123.1115597486 -11.0526590881 -0.5786806953 1
2.3327604532 123.1115597486 -10.943249412 0.3100140102 1
4.1105364561 123.1115597486 -9.6760802654 -0.0726452813 1
5.888312459 123.1115597486 -10.9336145903 0.5373562812 1
7.6660884619 123.1115597486 -10.5461754763 -0.1115167788 1
9.4438644648 123.1115597486 -9.8137414412 0.3855174478 1
11.2216404676 123.1115597486 -9.7764450799 -0.0644459815 1
12.9994164705 123.1115597486 0 -0 0
14.7771924734 123.1115597486 0 -0 0
16.5549684763 123.1115597486 0 -0 0
18.3327444792 123.1115597486 0 -0 0
20.1105204821 123.1115597486 0 -0 0
21.8882964849 123.1115597486 0 -0 0
23.6660724878 123.1115597486 0 -0 0
25.4438484907 123.1115597486 0 -0 0
27.2216244936 123.1115597486 0 -0 0
28.9994004965 123.1115597486 0 -0 0
30.7771764994 123.1115597486 0 -0 0
32.5549525023 123.1115597486 0 -0 0
34.3327285051 123.1115597486 0 -0 0
36.110504508 123.1115597486 0 -0 0
37.8882805109 123.1115597486 -9.9550698203 0.372081536 1
39.6660565138 123.1115597486 -9.8600318301 0.3507828308 1
41.4438325167 123.1115597486 -9.8828283466 0.379488972 1
43.2216085196 123.1115597486 -10.9258004828 0.5350551504 1
44.9993845224 123.1115597486 -9.6990371595 0.0213416635 1
46.7771605253 123.1115597486 -10.7773259971 0.4350783922 1
48.5549365282 123.1115597486 -10.3208751546 0.1162221402 1
50.3327125311 123.1115597486 -10.2052701814 0.5116801293 1
52.110488534 123.1115597486 -9.6831884255 0.8801689229 1
53.8882645369 123.1115597486 0 -0 0
-125.6671117544 121.3337837458 0 -0 0
-123.8893357515 121.3337837458 -10.3201878224 0.3362672348 1
-122.1115597486 121.3337837458 -10.306595829 0.5042297351 1
-120.3337837458 121.3337837458 -9.9321272457 -0.0101825395 1
-118.5560077429 121.3337837458 -9.719737313 -0.1115926717 1
-116.77823174 121.3337837458 -10.0482691971 0.3181001867 1
-115.0004557371 121.3337837458 -9.5614647642 -0.1780906261 1
-113.2226797342 121.3337837458 -9.5588801089 -0.1828117388 1
-111.4449037313 121.3337837458 -9.6504356162 -0.2581676864 1
-109.6671277285 121.3337837458 -10.2474566246 -0.2391801355 1
-107.8893517256 121.3337837458 -9.7451371001 -0.0531279119 1
-106.1115757227 121.3337837458 -9.6001601327 0.3063754456 1
-104.3337997198 121.3337837458 -9.825645175 -0.0601487235 1
-102.5560237169 121.3337837458 -9.6760258516 -0.5834920204 1
-100.778247714 121.3337837458 -9.9628080349 0.1081330998 1
-99.0004717112 121.3337837458 0 -0 0
-97.2226957083 121.3337837458 -10.3589061021 0.2729839902 1
-95.4449197054 121.3337837458 -9.78389977 -0.0495065306 1
-93.6671437025 121.3337837458 -9.922392904 0.5218168467 1
-91.8893676996 121.3337837458 -9.9352030571 0.2417819741 1
-90.1115916967 121.3337837458 -10.1747340184 -0.2954926864 1
-88.3338156939 121.3337837458 -9.7663241139 -0.125211872 1
-86.556039691 121.3337837458 -9.9283612382 0.1704483516 1
-84.7782636881 121.3337837458 -10.6546644137 -0.1750692284 1
-83.0004876852 121.3337837458 -10.7115153749 -0.5523744889 1
-81.2227116823 121.3337837458 -10.1529642042 -0.4656990399 1
-79.4449356794 121.3337837458 -9.5869891302 0.6292740699 1
-77.6671596766 121.3337837458 -9.8422728854 0.1553084289 1
-75.8893836737 121.3337837458 -9.9250405647 0.248251488 1
-74.1116076708 121.3337837458 -9.7634630938 0.4378033778 1
-72.3338316679 121.3337837458 0 -0 0
-70.556055665 121.3337837458 0 -0 0
-68.7782796621 121.3337837458 0 -0 0
-67.0005036592 121.3337837458 0 -0 0
-65.2227276564 121.3337837458 0 -0 0
-63.4449516535 121.3337837458 0 -0 0
-61.6671756506 121.3337837458 0 -0 0
-59.8893996477 121.3337837458 -10.3320958521 0.3510591956 1
-58.1116236448 121.3337837458 -10.8165905626 0.4391307881 1
-56.3338476419 121.3337837458 -10.5061426739 0.3641399857 1
-54.5560716391 121.3337837458 -10.2612877523 -0.1833114866 1
-52.7782956362 121.3337837458 -10.9749053537 -0.5712532122 1
-51.0005196333 121.3337837458 0 -0 0
-49.2227436304 121.3337837458 -10.3348251335 -0.5418368277 1
-47.4449676275 121.3337837458 -11.0194724004 0.029105653 1
-45.6671916246 121.3337837458 -10.8079316093 0.6600507992 1
-43.8894156218 121.3337837458 -11.0692832187 0.5451446137 1
-42.1116396189 121.3337837458 -10.6214684184 0.146789806 1
-40.333863616 121.3337837458 -9.8083043574 0.3008266704 1
-38.5560876131 121.3337837458 -10.2107674068 0.7220352724 1
-36.7783116102 121.3337837458 -10.111370585 0.8631717714 1
-35.0005356073 121.3337837458 -10.770983926 0.5455469894 1
-33.2227596045 121.3337837458 -10.374780611 0.3696658499 1
-31.4449836016 121.3337837458 -9.5260728858 0.6782651014 1
-29.6672075987 121.3337837458 -11.4064203582 0.4522588323 1
-27.8894315958 121.3337837458 0 -0 0
-26.1116555929 121.3337837458 -9.7181292421 0.3298320874 1
-24.33387959 121.3337837458 -9.6699501217 0.374354028 1
-22.5561035872 121.3337837458 -10.710031167 -0.1723012846 1
-20.7783275843 121.3337837458 -9.581095257 0.3020509808 1
-19.0005515814 121.3337837458 -10.1229564277 -0.1702937019 1
-17.2227755785 121.3337837458 -10.9537992446 0.7357332295 1
-15.4449995756 121.3337837458 -11.0313904536 0.3749969699 1
-13.6672235727 121.3337837458 -10.1283691685 -0.1615660154 1
-11.8894475698 121.3337837458 -9.7793920165 1.1462967748 1
-10.111671567 121.3337837458 -10.5807668991 0.4788256521 1
-8.3338955641 121.3337837458 -10.2653773787 0.6640573729 1
-6.5561195612 121.3337837458 -10.140181258 1.094745431 1
-4.7783435583 121.3337837458 -10.0201859507 0.1673496291 1
-3.0005675554 121.3337837458 0 -0 0
-1.2227915525 121.3337837458 -9.9476079706 -0.384105553 1
0.5549844503 121.3337837458 -10.4133356493 -0.0980894587 1
2.3327604532 121.3337837458 -10.6555099755 0.5952382406 1
4.1105364561 121.3337837458 -9.4853928456 -0.431578726 1
5.888312459 121.3337837458 -10.1475156649 0.5143464053 1
7.6660884619 121.3337837458 -10.3002050719 0.4431660006 1
9.4438644648 121.3337837458 -10.0684882181 0.6469843285 1
11.2216404676 121.3337837458 0 -0 0
12.9994164705 121.3337837458 0 -0 0
14.7771924734 121.3337837458 0 -0 0
16.5549684763 121.3337837458 0 -0 0
18.3327444792 121.3337837458 0 -0 0
20.1105204821 121.3337837458 0 -0 0
21.8882964849 121.3337837458 0 -0 0
23.6660724878 121.3337837458 0 -0 0
25.4438484907 121.3337837458 0 -0 0
27.2216244936 121.3337837458 0 -0 0
28.9994004965 121.3337837458 0 -0 0
30.7771764994 121.3337837458 0 -0 0
32.5549525023 121.3337837458 0 -0 0
34.3327285051 121.3337837458 0 -0 0
36.110504508 121.3337837458 0 -0 0
37.8882805109 121.3337837458 -10.2260834583 0.4840565362 1
39.6660565138 121.3337837458 -10.682110446 0.2935552689 1
41.4438325167 121.3337837458 -10.4227778748 0.516749204 1
43.2216085196 121.3337837458 -9.9700064073 0.1008760178 1
44.9993845224 121.3337837458 0 -0 0
46.7771605253 121.3337837458 -8.6332670748 0.2377310102 1
48.5549365282 121.3337837458 -9.6484867431 0.2332089374 1
50.3327125311 121.3337837458 -10.8920159593 0.52459911 1
52.110488534 121.3337837458 -9.905679277 0.4167194639 1
53.8882645369 121.3337837458 0 -0 0
-125.6671117544 119.5560077429 0 -0 0
-123.8893357515 119.5560077429 -9.8622670915 0.2194966608 1
-122.1115597486 119.5560077429 -9.8539732835 0.1902392219 1
-120.3337837458 119.5560077429 -9.7673551121 0.2573772544 1
-118.5560077429 119.5560077429 -9.4525884864 -0.2956459042 1
-116.77823174 119.5560077429 -9.8920572128 0.2816844698 1
-115.0004557371 119.5560077429 0 -0 0
-113.2226797342 119.5560077429 -8.9055451176 -0.5205309628 1
-111.4449037313 119.5560077429 -9.7819752399 -0.3266073541 1
-109.6671277285 119.5560077429 -10.2007022865 -0.0718190508 1
-107.8893517256 119.5560077429 -9.5989988278 0.3981357207 1
-106.1115757227 119.5560077429 -9.4320759173 0.1997344293 1
-104.3337997198 119.5560077429 -9.6895562715 -0.2723095455 1
-102.5560237169 119.5560077429 -9.4327675453 -0.3525326639 1
-100.778247714 119.5560077429 -9.6852146234 0.2917810928 1
-99.0004717112 119.5560077429 -9.6952324896 -0.0899202296 1
-97.2226957083 119.5560077429 -10.1087444034 -0.1593694164 1
-95.4449197054 119.5560077429 -9.8146707715 -0.1701963298 1
-93.6671437025 119.5560077429 -10.0062502912 -0.1305014658 1
-91.8893676996 119.5560077429 0 -0 0
-90.1115916967 119.5560077429 -9.7286196492 0.0331394336 1
-88.3338156939 119.5560077429 -9.6897939739 -0.3630645973 1
-86.556039691 119.5560077429 -9.4023702806 -0.0911832024 1
-84.7782636881 119.5560077429 -9.9233465774 -0.1470590111 1
-83.0004876852 119.5560077429 -10.301090012 -0.6130730781 1
-81.2227116823 119.5560077429 -9.79120697 -0.4641052884 1
-79.4449356794 119.5560077429 -9.4392843133 -0.2545377134 1
-77.6671596766 119.5560077429 -9.9114858018 0.0951239068 1
-75.8893836737 119.5560077429 -10.1229034459 -0.108473902 1
-74.1116076708 119.5560077429 -9.9266429078 0.3366595869 1
-72.3338316679 119.5560077429 0 -0 0
-70.556055665 119.5560077429 0 -0 0
-68.7782796621 119.5560077429 0 -0 0
-67.0005036592 119.5560077429 0 -0 0
-65.2227276564 119.5560077429 0 -0 0
-63.4449516535 119.5560077429 0 -0 0
-61.6671756506 119.5560077429 0 -0 0
-59.8893996477 119.5560077429 -10.0832801789 0.6493341453 1
-58.1116236448 119.5560077429 -10.975465959 0.4060443363 1
-56.3338476419 119.5560077429 -10.4414446707 0.6275843783 1
-54.5560716391 119.5560077429 -9.9900392758 0.5943762115 1
-52.7782956362 119.5560077429 0 -0 0
-51.0005196333 119.5560077429 -9.7121379968 -0.2540021671 1
-49.2227436304 119.5560077429 -10.2997640338 -0.3415754437 1
-47.4449676275 119.5560077429 -10.6958714086 0.2592230276 1
-45.6671916246 119.5560077429 -10.5311186062 0.6916122327 1
-43.8894156218 119.5560077429 -10.8463541929 0.059126317 1
-42.1116396189 119.5560077429 -10.7327811455 0.0914252006 1
-40.333863616 119.5560077429 0 -0 0
-38.5560876131 119.5560077429 -10.6970098025 0.2482858546 1
-36.7783116102 119.5560077429 -10.1253993208 0.0385507424 1
-35.0005356073 119.5560077429 -9.9134847928 0.1559012529 1
-33.2227596045 119.5560077429 -9.6860351262 0.7245597861 1
-31.4449836016 119.5560077429 -10.2400878511 -0.6257457648 1
-29.6672075987 119.5560077429 -10.981786551 -0.4090700297 1
-27.8894315958 119.5560077429 -11.1064592968 -0.503639775 1
-26.1116555929 119.5560077429 -10.4090097525 -0.2728837543 1
-24.33387959 119.5560077429 -9.7933262441 -0.3946575335 1
-22.5561035872 119.5560077429 0 -0 0
-20.7783275843 119.5560077429 -9.8905594015 -0.2628129062 1
-19.0005515814 119.5560077429 -9.7411849402 0.1052233937 1
-17.2227755785 119.5560077429 -10.4371316614 0.4185881482 1
-15.4449995756 119.5560077429 -11.2689653822 -0.2651297883 1
-13.6672235727 119.5560077429 -10.1822817846 0.4488909047 1
-11.8894475698 119.5560077429 0 -0 0
-10.111671567 119.5560077429 -10.265023689 -0.3028757794 1
-8.3338955641 119.5560077429 -10.4688362891 -0.2259461276 1
-6.5561195612 119.5560077429 -10.3559806446 1.4458862472 1
-4.7783435583 119.5560077429 -10.5738592109 1.0703494352 1
-3.0005675554 119.5560077429 -10.1203860918 -0.3877985314 1
-1.2227915525 119.5560077429 -10.40640505 -0.0310115678 1
0.5549844503 119.5560077429 -9.7931658666 0.6892037063 1
2.3327604532 119.5560077429 -10.0420846396 0.5626228977 1
4.1105364561 119.5560077429 -10.1474068373 -0.0540013966 1
5.888312459 119.5560077429 -9.9174942304 0.079764897 1
7.6660884619 119.5560077429 -10.1238513915 0.3156043118 1
9.4438644648 119.5560077429 -10.0302653904 0.8937322774 1
11.2216404676 119.5560077429 0 -0 0
12.9994164705 119.5560077429 0 -0 0
14.7771924734 119.5560077429 0 -0 0
16.5549684763 119.5560077429 0 -0 0
18.3327444792 119.5560077429 0 -0 0
20.1105204821 119.5560077429 0 -0 0
21.8882964849 119.5560077429 0 -0 0
23.6660724878 119.5560077429 0 -0 0
25.4438484907 119.5560077429 0 -0 0
27.2216244936 119.5560077429 0 -0 0
28.9994004965 119.5560077429 0 -0 0
30.7771764994 119.5560077429 0 -0 0
32.5549525023 119.5560077429 0 -0 0
34.3327285051 119.5560077429 0 -0 0
36.110504508 119.5560077429 -10.7613082939 0.1803316153 1
37.8882805109 119.5560077429 -10.3405801084 0.4449716795 1
39.6660565138 119.5560077429 -10.6507874308 0.6264245053 1
41.4438325167 119.5560077429 -9.6526422388 0.7462837782 1
43.2216085196 119.5560077429 -9.9092763153 -0.2239328171 1
44.9993845224 119.5560077429 0 -0 0
46.7771605253 119.5560077429 -8.7204036092 0.2596912726 1
48.5549365282 119.5560077429 0 -0 0
50.3327125311 119.5560077429 -9.5546329689 0.4696569275 1
52.110488534 119.5560077429 0 -0 0
53.8882645369 119.5560077429 0 -0 0
-125.6671117544 117.77823174 0 -0 0
-123.8893357515 117.77823174 -9.8589607374 0.507342777 1
-122.1115597486 117.77823174 -9.7327808726 0.0371603267 1
-120.3337837458 117.77823174 -9.5304460366 0.3752590153 1
-118.5560077429 117.77823174 -9.9714870353 0.1758396132 1
-116.77823174 117.77823174 -9.9059570738 0.2694427976 1
-115.0004557371 117.77823174 -10.5552389532 0.1429522014 1
-113.2226797342 117.77823174 -9.5992608732 -0.467103775 1
-111.4449037313 117.77823174 -9.8534119622 -0.1289635601 1
-109.6671277285 117.77823174 -9.8615697358 0.0608861737 1
-107.8893517256 117.77823174 -9.4212003179 -0.1072610472 1
-106.1115757227 117.77823174 -9.8493595664 -0.0469519461 1
-104.3337997198 117.77823174 -9.810362058 -0.0190849229 1
-102.5560237169 117.77823174 -9.0417972624 -0.2233070585 1
-100.778247714 117.77823174 -9.9624772563 0.4819945398 1
-99.0004717112 117.77823174 0 -0 0
-97.2226957083 117.77823174 -9.5249960654 -0.1371843391 1
-95.4449197054 117.77823174 -10.0702595303 -0.1209117502 1
-93.6671437025 117.77823174 -9.9942162506 -0.4334502742 1
-91.8893676996 117.77823174 -10.6653338136 0.2486581596 1
-90.1115916967 117.77823174 -9.6889462642 0.4401761057 1
-88.3338156939 117.77823174 -10.0754130896 -0.5021562831 1
-86.556039691 117.77823174 -9.7392059964 -0.2063643208 1
-84.7782636881 117.77823174 -9.7201511442 -0.1589913837 1
-83.0004876852 117.77823174 -9.4155828094 0.2579686464 1
-81.2227116823 117.77823174 -9.7507961349 -0.4057908826 1
-79.4449356794 117.77823174 -9.7453246845 -0.1035508854 1
-77.6671596766 117.77823174 -10.0222651304 -0.4056920786 1
-75.8893836737 117.77823174 -10.0704041565 -0.3330711402 1
-74.1116076708 117.77823174 -10.0956134953 0.6202628589 1
-72.3338316679 117.77823174 0 -0 0
-70.556055665 117.77823174 0 -0 0
-68.7782796621 117.77823174 0 -0 0
-67.0005036592 117.77823174 0 -0 0
-65.2227276564 117.77823174 0 -0 0
-63.4449516535 117.77823174 0 -0 0
-61.6671756506 117.77823174 0 -0 0
-59.8893996477 117.77823174 -9.9786839758 -0.7373742351 1
-58.1116236448 117.77823174 -9.9965417244 0.1718974769 1
-56.3338476419 117.77823174 -10.7832563848 1.0231812658 1
-54.5560716391 117.77823174 -9.9280548026 0.846492511 1
-52.7782956362 117.77823174 -10.4096312153 -0.2391887271 1
-51.0005196333 117.77823174 -10.4333699498 -0.16293352 1
-49.2227436304 117.77823174 -10.2521004125 -0.3843461192 1
-47.4449676275 117.77823174 -10.3970143744 -0.0500048464 1
-45.6671916246 117.77823174 -10.606789581 -0.4383876102 1
-43.8894156218 117.77823174 -10.545960685 0.1268342623 1
-42.1116396189 117.77823174 -10.4311790785 0.7811816365 1
-40.333863616 117.77823174 -10.1606079106 0.8209266186 1
-38.5560876131 117.77823174 -10.1640832338 0.4143095055 1
-36.7783116102 117.77823174 -9.4406818887 -0.2312328574 1
-35.0005356073 117.77823174 -9.5940271252 -0.0834349643 1
-33.2227596045 117.77823174 -9.7615342679 0.3650177662 1
-31.4449836016 117.77823174 -10.684923496 0.3003011477 1
-29.6672075987 117.77823174 -10.8911890128 0.2122009163 1
-27.8894315958 117.77823174 -11.0185502298 -0.2314676959 1
-26.1116555929 117.77823174 -10.8926553214 -0.0204194929 1
-24.33387959 117.77823174 -10.5386312899 -1.1189710257 1
-22.5561035872 117.77823174 0 -0 0
-20.7783275843 117.77823174 -10.4431171789 0.0846292039 1
-19.0005515814 117.77823174 -9.8703962262 0.4821577812 1
-17.2227755785 117.77823174 -9.9946544249 0.2434473226 1
-15.4449995756 117.77823174 -10.8089840867 -0.7227942017 1
-13.6672235727 117.77823174 -10.5682202234 0.0117920423 1
-11.8894475698 117.77823174 -10.3198112217 0.1304799866 1
-10.111671567 117.77823174 -10.2584224364 -0.2789150939 1
-8.3338955641 117.77823174 -9.9733285127 -0.6658773712 1
-6.5561195612 117.77823174 -10.9818989584 -0.3005818083 1
-4.7783435583 117.77823174 -9.7547124962 -0.4282866913 1
-3.0005675554 117.77823174 -9.9222797806 0.6059291195 1
-1.2227915525 117.77823174 -10.4325580386 0.4901322661 1
0.5549844503 117.77823174 -10.8758758251 0.5836781729 1
2.3327604532 117.77823174 -10.7612001823 0.3847484949 1
4.1105364561 117.77823174 -10.3075165677 0.4433464253 1
5.888312459 117.77823174 -10.6292861057 -0.1774935062 1
7.6660884619 117.77823174 -9.9293249352 0.5164871586 1
9.4438644648 117.77823174 -10.9065530345 0.4912577725 1
11.2216404676 117.77823174 -10.1142645398 0.6279495235 1
12.9994164705 117.77823174 0 -0 0
14.7771924734 117.77823174 0 -0 0
16.5549684763 117.77823174 0 -0 0
18.3327444792 117.77823174 0 -0 0
20.1105204821 117.77823174 0 -0 0
21.8882964849 117.77823174 0 -0 0
23.6660724878 117.77823174 0 -0 0
25.4438484907 117.77823174 0 -0 0