TITLE = "B00015"
VARIABLES = "x", "y", "Vx", "Vy", "isValid"
ZONE T="Frame 0", I=102, J=78, F=POINT
-125.6671117544 126.6671117544 0 -0 0
-123.8893357515 126.6671117544 0 -0 0
-122.1115597486 126.6671117544 0 -0 0
-120.3337837458 126.6671117544 0 -0 0
-118.5560077429 126.6671117544 0 -0 0
-116.77823174 126.6671117544 0 -0 0
-115.0004557371 126.6671117544 0 -0 0
-113.2226797342 126.6671117544 0 -0 0
-111.4449037313 126.6671117544 0 -0 0
-109.6671277285 126.6671117544 0 -0 0
-107.8893517256 126.6671117544 0 -0 0
-106.1115757227 126.6671117544 0 -0 0
-104.3337997198 126.6671117544 0 -0 0
-102.5560237169 126.6671117544 0 -0 0
-100.778247714 126.6671117544 0 -0 0
-99.0004717112 126.6671117544 0 -0 0
-97.2226957083 126.6671117544 0 -0 0
-95.4449197054 126.6671117544 0 -0 0
-93.6671437025 126.6671117544 0 -0 0
-91.8893676996 126.6671117544 0 -0 0
-90.1115916967 126.6671117544 0 -0 0
-88.3338156939 126.6671117544 0 -0 0
-86.556039691 126.6671117544 0 -0 0
-84.7782636881 126.6671117544 0 -0 0
-83.0004876852 126.6671117544 0 -0 0
-81.2227116823 126.6671117544 0 -0 0
-79.4449356794 126.6671117544 0 -0 0
-77.6671596766 126.6671117544 0 -0 0
-75.8893836737 126.6671117544 0 -0 0
-74.1116076708 126.6671117544 0 -0 0
-72.3338316679 126.6671117544 0 -0 0
-70.556055665 126.6671117544 0 -0 0
-68.7782796621 126.6671117544 0 -0 0
-67.0005036592 126.6671117544 0 -0 0
-65.2227276564 126.6671117544 0 -0 0
-63.4449516535 126.6671117544 0 -0 0
-61.6671756506 126.6671117544 0 -0 0
-59.8893996477 126.6671117544 0 -0 0
-58.1116236448 126.6671117544 0 -0 0
-56.3338476419 126.6671117544 0 -0 0
-54.5560716391 126.6671117544 0 -0 0
-52.7782956362 126.6671117544 0 -0 0
-51.0005196333 126.6671117544 0 -0 0
-49.2227436304 126.6671117544 0 -0 0
-47.4449676275 126.6671117544 0 -0 0
-45.6671916246 126.6671117544 0 -0 0
-43.8894156218 126.6671117544 0 -0 0
-42.1116396189 126.6671117544 0 -0 0
-40.333863616 126.6671117544 0 -0 0
-38.5560876131 126.6671117544 0 -0 0
-36.7783116102 126.6671117544 0 -0 0
-35.0005356073 126.6671117544 0 -0 0
-33.2227596045 126.6671117544 0 -0 0
-31.4449836016 126.6671117544 0 -0 0
-29.6672075987 126.6671117544 0 -0 0
-27.8894315958 126.6671117544 0 -0 0
-26.1116555929 126.6671117544 0 -0 0
-24.33387959 126.6671117544 0 -0 0
-22.5561035872 126.6671117544 0 -0 0
-20.7783275843 126.6671117544 0 -0 0
-19.0005515814 126.6671117544 0 -0 0
-17.2227755785 126.6671117544 0 -0 0
-15.4449995756 126.6671117544 0 -0 0
-13.6672235727 126.6671117544 0 -0 0
-11.8894475698 126.6671117544 0 -0 0
-10.111671567 126.6671117544 0 -0 0
-8.3338955641 126.6671117544 0 -0 0
-6.5561195612 126.6671117544 0 -0 0
-4.7783435583 126.6671117544 0 -0 0
-3.0005675554 126.6671117544 0 -0 0
-1.2227915525 126.6671117544 0 -0 0
0.5549844503 126.6671117544 0 -0 0
2.3327604532 126.6671117544 0 -0 0
4.1105364561 126.6671117544 0 -0 0
5.888312459 126.6671117544 0 -0 0
7.6660884619 126.6671117544 0 -0 0
9.4438644648 126.6671117544 0 -0 0
11.2216404676 126.6671117544 0 -0 0
12.9994164705 126.6671117544 0 -0 0
14.7771924734 126.6671117544 0 -0 0
16.5549684763 126.6671117544 0 -0 0
18.3327444792 126.6671117544 0 -0 0
20.1105204821 126.6671117544 0 -0 0
21.8882964849 126.6671117544 0 -0 0
23.6660724878 126.6671117544 0 -0 0
25.4438484907 126.6671117544 0 -0 0
27.2216244936 126.6671117544 0 -0 0
28.9994004965 126.6671117544 0 -0 0
30.7771764994 126.6671117544 0 -0 0
32.5549525023 126.6671117544 0 -0 0
34.3327285051 126.6671117544 0 -0 0
36.110504508 126.6671117544 0 -0 0
37.8882805109 126.6671117544 0 -0 0
39.6660565138 126.6671117544 0 -0 0
41.4438325167 126.6671117544 0 -0 0
43.2216085196 126.6671117544 0 -0 0
44.9993845224 126.6671117544 0 -0 0
46.7771605253 126.6671117544 0 -0 0
48.5549365282 126.6671117544 0 -0 0
50.3327125311 126.6671117544 0 -0 0
52.110488534 126.6671117544 0 -0 0
53.8882645369 126.6671117544 0 -0 0
-125.6671117544 124.8893357515 0 -0 0
-123.8893357515 124.8893357515 0 -0 0
-122.1115597486 124.8893357515 -9.7576708884 0.0727942033 1
-120.3337837458 124.8893357515 -10.1186577379 -0.0718032995 1
-118.5560077429 124.8893357515 -10.0713721493 0.1725604661 1
-116.77823174 124.8893357515 -9.9392468613 -0.0522186288 1
-115.0004557371 124.8893357515 -10.4291700639 0.3597281724 1
-113.2226797342 124.8893357515 -10.0415147267 -0.1085540908 1
-111.4449037313 124.8893357515 -10.1125748483 0.3760107849 1
-109.6671277285 124.8893357515 -9.2107105722 -0.1337075839 1
-107.8893517256 124.8893357515 -10.4473786383 0.4939312082 1
-106.1115757227 124.8893357515 -9.7732146188 -0.1778314446 1
-104.3337997198 124.8893357515 -9.8056266259 -0.0128087212 1
-102.5560237169 124.8893357515 -9.9197667224 -0.0526095489 1
-100.778247714 124.8893357515 -10.4887531703 0.1175925087 1
-99.0004717112 124.8893357515 -10.0441065417 0.4596920432 1
-97.2226957083 124.8893357515 -9.859762625 -0.3600503594 1
-95.4449197054 124.8893357515 -10.5866120864 -0.2048249831 1
-93.6671437025 124.8893357515 -9.9439293116 0.1388525515 1
-91.8893676996 124.8893357515 0 -0 0
-90.1115916967 124.8893357515 -9.2993162791 -0.5157554362 1
-88.3338156939 124.8893357515 0 -0 0
-86.556039691 124.8893357515 -9.2541599882 -0.1520178262 1
-84.7782636881 124.8893357515 -10.1337776134 -0.0169771043 1
-83.0004876852 124.8893357515 -10.4883593863 -0.2834729653 1
-81.2227116823 124.8893357515 -10.157808464 -0.0810335976 1
-79.4449356794 124.8893357515 -9.7924198248 0.7074351918 1
-77.6671596766 124.8893357515 -9.654168689 0.5704355733 1
-75.8893836737 124.8893357515 -10.064169481 -0.353419036 1
-74.1116076708 124.8893357515 -9.7064188205 -0.2207739531 1
-72.3338316679 124.8893357515 0 -0 0
-70.556055665 124.8893357515 0 -0 0
-68.7782796621 124.8893357515 0 -0 0
-67.0005036592 124.8893357515 0 -0 0
-65.2227276564 124.8893357515 0 -0 0
-63.4449516535 124.8893357515 0 -0 0
-61.6671756506 124.8893357515 0 -0 0
-59.8893996477 124.8893357515 -10.0093117831 -0.4583546094 1
-58.1116236448 124.8893357515 -10.1871732985 -0.3996678986 1
-56.3338476419 124.8893357515 -9.6934554496 0.4659238547 1
-54.5560716391 124.8893357515 -9.6343076535 0.0762208405 1
-52.7782956362 124.8893357515 -10.0035911749 0.2258229806 1
-51.0005196333 124.8893357515 -10.1164797541 -0.2777695403 1
-49.2227436304 124.8893357515 -10.0310500946 -0.1620242369 1
-47.4449676275 124.8893357515 -10.5855130709 -0.1624380681 1
-45.6671916246 124.8893357515 -11.0251543462 -0.0934843332 1
-43.8894156218 124.8893357515 -10.041088008 -0.0652249579 1
-42.1116396189 124.8893357515 -10.8046639177 -0.4282852594 1
-40.333863616 124.8893357515 -10.8003630799 -0.2162175136 1
-38.5560876131 124.8893357515 -10.2091206735 0.0377288077 1
-36.7783116102 124.8893357515 -11.260897105 0.332607191 1
-35.0005356073 124.8893357515 -10.8168089337 -0.5634333769 1
-33.2227596045 124.8893357515 -11.021432013 -0.5146557048 1
-31.4449836016 124.8893357515 0 -0 0
-29.6672075987 124.8893357515 0 -0 0
-27.8894315958 124.8893357515 -10.9976854029 0.1888688535 1
-26.1116555929 124.8893357515 0 -0 0
-24.33387959 124.8893357515 -10.1086756702 -0.4573307708 1
-22.5561035872 124.8893357515 -10.4339842529 0.3357631912 1
-20.7783275843 124.8893357515 -10.1952021973 0.8999497696 1
-19.0005515814 124.8893357515 -9.3122109167 0.0857275034 1
-17.2227755785 124.8893357515 -10.2348426475 -0.7580772524 1
-15.4449995756 124.8893357515 -10.7734855286 1.0364310251 1
-13.6672235727 124.8893357515 -10.7358612527 -0.2167659474 1
-11.8894475698 124.8893357515 -10.5431304517 -0.1383084135 1
-10.111671567 124.8893357515 -10.8492230887 0.198408451 1
-8.3338955641 124.8893357515 -10.6555794247 0.3664597318 1
-6.5561195612 124.8893357515 -10.3655030589 0.2427886293 1
-4.7783435583 124.8893357515 -10.440598393 0.4435497611 1
-3.0005675554 124.8893357515 -10.4232074574 0.3265071181 1
-1.2227915525 124.8893357515 0 -0 0
0.5549844503 124.8893357515 -10.3997837502 0.3503432246 1
2.3327604532 124.8893357515 0 -0 0
4.1105364561 124.8893357515 -10.275886401 -0.0356997459 1
5.888312459 124.8893357515 -9.7796726772 0.5572903457 1
7.6660884619 124.8893357515 -9.4594532164 0.5750106279 1
9.4438644648 124.8893357515 -11.0827534971 0.8911304388 1
11.2216404676 124.8893357515 0 -0 0
12.9994164705 124.8893357515 0 -0 0
14.7771924734 124.8893357515 0 -0 0
16.5549684763 124.8893357515 0 -0 0
18.3327444792 124.8893357515 0 -0 0
20.1105204821 124.8893357515 0 -0 0
21.8882964849 124.8893357515 0 -0 0
23.6660724878 124.8893357515 0 -0 0
25.4438484907 124.8893357515 0 -0 0
27.2216244936 124.8893357515 0 -0 0
28.9994004965 124.8893357515 0 -0 0
30.7771764994 124.8893357515 0 -0 0
32.5549525023 124.8893357515 0 -0 0
34.3327285051 124.8893357515 0 -0 0
36.110504508 124.8893357515 0 -0 0
37.8882805109 124.8893357515 -9.791033705 0.4521815074 1
39.6660565138 124.8893357515 -10.1284822919 1.039816136 1
41.4438325167 124.8893357515 0 -0 0
43.2216085196 124.8893357515 -11.1036476787 0.5072854993 1
44.9993845224 124.8893357515 -11.3184275226 0.8740831694 1
46.7771605253 124.8893357515 -10.3633465542 0.1471606789 1
48.5549365282 124.8893357515 -9.9173123738 0.3443906417 1
50.3327125311 124.8893357515 -9.8363417817 0.3883813318 1
52.110488534 124.8893357515 -9.9720354691 0.1068787186 1
53.8882645369 124.8893357515 0 -0 0
-125.6671117544 123.1115597486 0 -0 0
-123.8893357515 123.1115597486 -9.896842763 -0.0463276194 1
-122.1115597486 123.1115597486 -9.9859152829 -0.280692134 1
-120.3337837458 123.1115597486 -9.9055017162 0.0961720883 1
-118.5560077429 123.1115597486 -10.0240020761 0.2414368761 1
-116.77823174 123.1115597486 -10.3082626095 -0.067371439 1
-115.0004557371 123.1115597486 -9.9472342337 0.655415603 1
-113.2226797342 123.1115597486 -9.8785554317 0.1801769655 1
-111.4449037313 123.1115597486 -10.2824475592 0.3762155526 1
-109.6671277285 123.1115597486 -9.2724172487 0.1924787792 1
-107.8893517256 123.1115597486 -10.5495183449 0.2235533525 1
-106.1115757227 123.1115597486 -9.6862198467 -0.3676768825 1
-104.3337997198 123.1115597486 -10.2229475054 -0.1672221863 1
-102.5560237169 123.1115597486 -10.3237519261 -0.4518564566 1
-100.778247714 123.1115597486 -10.0100936235 -0.3838105729 1
-99.0004717112 123.1115597486 -9.682459567 0.674473319 1
-97.2226957083 123.1115597486 -9.331360277 0.6268641115 1
-95.4449197054 123.1115597486 0 -0 0
-93.6671437025 123.1115597486 -9.959868258 -0.0851074725 1
-91.8893676996 123.1115597486 -9.4274464489 -0.1800323394 1
-90.1115916967 123.1115597486 -9.3835846336 -0.1279626326 1
-88.3338156939 123.1115597486 -9.8181317753 0.0248270103 1
-86.556039691 123.1115597486 -9.3517797699 0.5408530836 1
-84.7782636881 123.1115597486 -9.9710975471 -0.2433556784 1
-83.0004876852 123.1115597486 -10.1829920279 -0.1527824832 1
-81.2227116823 123.1115597486 -9.902321373 -0.6585386685 1
-79.4449356794 123.1115597486 -9.9449903806 -0.333767064 1
-77.6671596766 123.1115597486 -9.8317810464 0.0782842689 1
-75.8893836737 123.1115597486 -9.8024348271 0.2136357222 1
-74.1116076708 123.1115597486 -9.8358033715 -0.4606571721 1
-72.3338316679 123.1115597486 0 -0 0
-70.556055665 123.1115597486 0 -0 0
-68.7782796621 123.1115597486 0 -0 0
-67.0005036592 123.1115597486 0 -0 0
-65.2227276564 123.1115597486 0 -0 0
-63.4449516535 123.1115597486 0 -0 0
-61.6671756506 123.1115597486 0 -0 0
-59.8893996477 123.1115597486 -10.0021449135 -0.4534144095 1
-58.1116236448 123.1115597486 -9.8536095702 0.1078094809 1
-56.3338476419 123.1115597486 -10.739384546 0.1906931476 1
-54.5560716391 123.1115597486 -9.9843644897 0.3564132267 1
-52.7782956362 123.1115597486 -9.7031611524 0.0013245463 1
-51.0005196333 123.1115597486 -10.6353890425 -0.7028773204 1
-49.2227436304 123.1115597486 -10.9462708096 0.2735925655 1
-47.4449676275 123.1115597486 -11.1134865522 0.3958632287 1
-45.6671916246 123.1115597486 -10.6233184875 -0.180189853 1
-43.8894156218 123.1115597486 0 -0 0
-42.1116396189 123.1115597486 -10.9064048285 -0.054435275 1
-40.333863616 123.1115597486 -10.6989486519 0.3844048288 1
-38.5560876131 123.1115597486 0 -0 0
-36.7783116102 123.1115597486 -11.2986960778 -0.1896736049 1
-35.0005356073 123.1115597486 -10.7940596712 -0.8521114514 1
-33.2227596045 123.1115597486 -10.8402140257 0.0734557605 1
-31.4449836016 123.1115597486 0 -0 0
-29.6672075987 123.1115597486 0 -0 0
-27.8894315958 123.1115597486 0 -0 0
-26.1116555929 123.1115597486 -9.89400179 -0.0087463017 1
-24.33387959 123.1115597486 -9.7181206505 -0.0836554834 1
-22.5561035872 123.1115597486 -10.3067075205 -0.2738947053 1
-20.7783275843 123.1115597486 -10.069403229 -0.1119721363 1
-19.0005515814 123.1115597486 -9.8488884574 0.0464593581 1
-17.2227755785 123.1115597486 -11.3042849475 -0.4731694812 1
-15.4449995756 123.1115597486 -10.790731838 -0.6619509862 1
-13.6672235727 123.1115597486 -10.0144152244 -0.3209325679 1
-11.8894475698 123.1115597486 -11.2084429217 0.4255216113 1
-10.111671567 123.1115597486 -10.9066368031 0.5793580038 1
-8.3338955641 123.1115597486 -10.6241640492 0.3886405133 1
-6.5561195612 123.1115597486 -10.6112873108 0.4473014491 1
-4.7783435583 123.1115597486 -10.9047981895 0.7481682138 1
-3.0005675554 123.1115597486 -10.6207739266 0.4995587403 1
-1.2227915525 123.1115597486 0 -0 0
0.5549844503 123.1115597486 -10.9233239391 0.5647794024 1
2.3327604532 123.1115597486 -10.2332331447 0.433158158 1
4.1105364561 123.1115597486 -10.626318406 0.0429983543 1
5.888312459 123.1115597486 -10.2042162721 0.3327145867 1
7.6660884619 123.1115597486 -10.7590479735 1.0588881714 1
9.4438644648 123.1115597486 -10.1052676482 -0.0638717727 1
11.2216404676 123.1115597486 -9.4438092501 0.2055366583 1
12.9994164705 123.1115597486 0 -0 0
14.7771924734 123.1115597486 0 -0 0
16.5549684763 123.1115597486 0 -0 0
18.3327444792 123.1115597486 0 -0 0
20.1105204821 123.1115597486 0 -0 0
21.8882964849 123.1115597486 0 -0 0
23.6660724878 123.1115597486 0 -0 0
25.4438484907 123.1115597486 0 -0 0
27.2216244936 123.1115597486 0 -0 0
28.9994004965 123.1115597486 0 -0 0
30.7771764994 123.1115597486 0 -0 0
32.5549525023 123.1115597486 0 -0 0
34.3327285051 123.1115597486 0 -0 0
36.110504508 123.1115597486 0 -0 0
37.8882805109 123.1115597486 -9.722081402 0.3744127376 1
39.6660565138 123.1115597486 -10.4299404487 0.8663721617 1
41.4438325167 123.1115597486 -10.370387413 0.4448700116 1
43.2216085196 123.1115597486 -10.6997333561 0.7364492005 1
44.9993845224 123.1115597486 -9.9067689849 0.185943396 1
46.7771605253 123.1115597486 -9.2296608926 -0.4211140939 1
48.5549365282 123.1115597486 -9.6464276106 -0.3419520445 1
50.3327125311 123.1115597486 -10.2287282552 0.2678318629 1
52.110488534 123.1115597486 -10.1693728275 0.4421951439 1
53.8882645369 123.1115597486 0 -0 0
-125.6671117544 121.3337837458 0 -0 0
-123.8893357515 121.3337837458 -10.0514509722 -0.1579074036 1
-122.1115597486 121.3337837458 -9.9326212657 -0.0250718724 1
-120.3337837458 121.3337837458 -9.9848928763 -0.3470698052 1
-118.5560077429 121.3337837458 -10.0389658699 0.3019364254 1
-116.77823174 121.3337837458 0 -0 0
-115.0004557371 121.3337837458 -9.9023786507 -0.0038920183 1
-113.2226797342 121.3337837458 -10.0648210146 -0.1411322031 1
-111.4449037313 121.3337837458 -10.2072004392 -0.2690017595 1
-109.6671277285 121.3337837458 0 -0 0
-107.8893517256 121.3337837458 -10.0289580273 -0.4720110402 1
-106.1115757227 121.3337837458 -9.9105006257 -0.4337896444 1
-104.3337997198 121.3337837458 -9.9128218037 -0.4481620462 1
-102.5560237169 121.3337837458 -10.002352545 -0.5422148604 1
-100.778247714 121.3337837458 -9.8566452872 -0.3354395723 1
-99.0004717112 121.3337837458 -9.6309712287 -0.7128966186 1
-97.2226957083 121.3337837458 -9.4547893813 0.0465395468 1
-95.4449197054 121.3337837458 -10.0319364667 0.1323114404 1
-93.6671437025 121.3337837458 -10.3151545463 -0.1255870408 1
-91.8893676996 121.3337837458 -9.4889512215 0.7290274452 1
-90.1115916967 121.3337837458 -9.4501570489 -0.3189922865 1
-88.3338156939 121.3337837458 -9.5649601346 -0.4565460666 1
-86.556039691 121.3337837458 -9.3707200667 -0.3659800312 1
-84.7782636881 121.3337837458 -9.8946805305 -0.4577431701 1
-83.0004876852 121.3337837458 -10.0520294768 0.1582224309 1
-81.2227116823 121.3337837458 -10.0683707988 -0.1027733409 1
-79.4449356794 121.3337837458 -10.1330272758 -0.335743144 1
-77.6671596766 121.3337837458 -9.7201153457 -0.3837404078 1
-75.8893836737 121.3337837458 -9.7777409874 -0.0873069354 1
-74.1116076708 121.3337837458 -10.1113448101 0.1260653095 1
-72.3338316679 121.3337837458 0 -0 0
-70.556055665 121.3337837458 0 -0 0
-68.7782796621 121.3337837458 0 -0 0
-67.0005036592 121.3337837458 0 -0 0
-65.2227276564 121.3337837458 0 -0 0
-63.4449516535 121.3337837458 0 -0 0
-61.6671756506 121.3337837458 0 -0 0
-59.8893996477 121.3337837458 -10.1456999625 -0.5267599104 1
-58.1116236448 121.3337837458 -10.2651339485 -0.3654702598 1
-56.3338476419 121.3337837458 -10.4964527225 -0.2926202108 1
-54.5560716391 121.3337837458 -10.3098248582 -0.0208777143 1
-52.7782956362 121.3337837458 -9.556949851 -0.190286476 1
-51.0005196333 121.3337837458 -10.0392307792 0.2944702798 1
-49.2227436304 121.3337837458 -10.1334625862 -0.0959057471 1
-47.4449676275 121.3337837458 -10.1266393825 -0.3843633025 1
-45.6671916246 121.3337837458 -10.588792934 -0.3063969247 1
-43.8894156218 121.3337837458 -10.8230278578 0.3340577483 1
-42.1116396189 121.3337837458 -10.7606524645 0.2964979097 1
-40.333863616 121.3337837458 -10.8298331622 0.5845487936 1
-38.5560876131 121.3337837458 -10.4825213588 0.4829124146 1
-36.7783116102 121.3337837458 -10.9462342951 -0.802746683 1
-35.0005356073 121.3337837458 -10.6530506151 0.366602926 1
-33.2227596045 121.3337837458 -10.3968969552 -0.3001479299 1
-31.4449836016 121.3337837458 -10.7745508935 -0.7995649079 1
-29.6672075987 121.3337837458 -10.9560251985 -0.2805847383 1
-27.8894315958 121.3337837458 -10.0588054263 -0.5591590301 1
-26.1116555929 121.3337837458 -10.2208239354 0.3256178821 1
-24.33387959 121.3337837458 -10.1389297407 0.3875765804 1
-22.5561035872 121.3337837458 -10.152845353 0.0234265711 1
-20.7783275843 121.3337837458 -10.2178096975 -0.309031698 1
-19.0005515814 121.3337837458 -9.9892846424 0.3542424026 1
-17.2227755785 121.3337837458 -10.6999817981 -0.6304754692 1
-15.4449995756 121.3337837458 -10.3322805726 -1.1645196686 1
-13.6672235727 121.3337837458 -9.8697976745 0.3017946632 1
-11.8894475698 121.3337837458 -10.770760543 0.6548943761 1
-10.111671567 121.3337837458 -9.8936438045 0.4356440093 1
-8.3338955641 121.3337837458 -10.3916803905 0.2251814705 1
-6.5561195612 121.3337837458 -10.8499626868 -0.1406754136 1
-4.7783435583 121.3337837458 -11.0758479568 0.2451857002 1
-3.0005675554 121.3337837458 -10.8763505139 0.2148958312 1
-1.2227915525 121.3337837458 0 -0 0
0.5549844503 121.3337837458 -10.9203347602 0.4818957358 1
2.3327604532 121.3337837458 -10.7175409868 0.0973348252 1
4.1105364561 121.3337837458 -10.8666641422 0.4837486687 1
5.888312459 121.3337837458 -10.1065521002 0.4514540809 1
7.6660884619 121.3337837458 -10.6824075739 0.9132969009 1
9.4438644648 121.3337837458 -9.7896146505 0.1332493624 1
11.2216404676 121.3337837458 -10.1482702983 0.4484527305 1
12.9994164705 121.3337837458 0 -0 0
14.7771924734 121.3337837458 0 -0 0
16.5549684763 121.3337837458 0 -0 0
18.3327444792 121.3337837458 0 -0 0
20.1105204821 121.3337837458 0 -0 0
21.8882964849 121.3337837458 0 -0 0
23.6660724878 121.3337837458 0 -0 0
25.4438484907 121.3337837458 0 -0 0
27.2216244936 121.3337837458 0 -0 0
28.9994004965 121.3337837458 0 -0 0
30.7771764994 121.3337837458 0 -0 0
32.5549525023 121.3337837458 0 -0 0
34.3327285051 121.3337837458 0 -0 0
36.110504508 121.3337837458 0 -0 0
37.8882805109 121.3337837458 -10.916191436 0.2243108498 1
39.6660565138 121.3337837458 -10.5492219329 0.2162690636 1
41.4438325167 121.3337837458 -10.023561038 0.0431959623 1
43.2216085196 121.3337837458 -10.1450899552 0.7128135659 1
44.9993845224 121.3337837458 -9.7331159471 0.9075462219 1
46.7771605253 121.3337837458 -9.4975829678 -0.1292327651 1
48.5549365282 121.3337837458 -9.3011634842 0.4401173961 1
50.3327125311 121.3337837458 -9.4705822696 -0.2333879301 1
52.110488534 121.3337837458 -9.4495742485 -0.2700384855 1
53.8882645369 121.3337837458 0 -0 0
-125.6671117544 119.5560077429 0 -0 0
-123.8893357515 119.5560077429 -9.8618446686 -0.1185175432 1
-122.1115597486 119.5560077429 -10.1010677624 0.0273372046 1
-120.3337837458 119.5560077429 -9.9508656386 0.0070623379 1
-118.5560077429 119.5560077429 -9.6899829903 -0.0081563416 1
-116.77823174 119.5560077429 -9.8648374274 -0.0625057001 1
-115.0004557371 119.5560077429 -9.7141069171 -0.1520779678 1
-113.2226797342 119.5560077429 -10.3520227569 -0.1989382696 1
-111.4449037313 119.5560077429 -10.1705327005 0.0505747594 1
-109.6671277285 119.5560077429 -10.0145083007 0.2736741862 1
-107.8893517256 119.5560077429 -9.7997255929 -0.2644997339 1
-106.1115757227 119.5560077429 -10.0789857849 -0.4765531602 1
-104.3337997198 119.5560077429 -9.8980341387 0.2654949336 1
-102.5560237169 119.5560077429 -9.4903029747 -0.1237641787 1
-100.778247714 119.5560077429 -9.751805654 -0.6192361565 1
-99.0004717112 119.5560077429 -9.7830978824 -0.2208111836 1
-97.2226957083 119.5560077429 -9.727117542 0.5427246318 1
-95.4449197054 119.5560077429 -9.4073076166 0.1146011818 1
-93.6671437025 119.5560077429 -10.2243851751 -0.0130177847 1
-91.8893676996 119.5560077429 -9.9328890388 0.1788710344 1
-90.1115916967 119.5560077429 -9.7187721841 0.0357040417 1
-88.3338156939 119.5560077429 -9.5377102784 -0.6347354967 1
-86.556039691 119.5560077429 -9.5568911414 -0.7016988322 1
-84.7782636881 119.5560077429 -9.9329677956 -0.4826145707 1
-83.0004876852 119.5560077429 -10.2809268368 0.5520351186 1
-81.2227116823 119.5560077429 -10.1201340701 0.14135845 1
-79.4449356794 119.5560077429 -9.910321633 -0.3667103216 1
-77.6671596766 119.5560077429 -9.5463448886 0.0743994103 1
-75.8893836737 119.5560077429 -9.8326359158 -0.2818777819 1
-74.1116076708 119.5560077429 -10.209452884 -0.305255667 1
-72.3338316679 119.5560077429 0 -0 0
-70.556055665 119.5560077429 0 -0 0
-68.7782796621 119.5560077429 0 -0 0
-67.0005036592 119.5560077429 0 -0 0
-65.2227276564 119.5560077429 0 -0 0
-63.4449516535 119.5560077429 0 -0 0
-61.6671756506 119.5560077429 0 -0 0
-59.8893996477 119.5560077429 -10.8309865914 -0.4214978543 1
-58.1116236448 119.5560077429 -9.7183884236 -0.0236299068 1
-56.3338476419 119.5560077429 -10.2169304851 -0.2995937683 1
-54.5560716391 119.5560077429 -10.7744928998 0.3295170602 1
-52.7782956362 119.5560077429 -10.9025536205 -0.179104441 1
-51.0005196333 119.5560077429 -9.7333321703 0.6845183921 1
-49.2227436304 119.5560077429 -10.7168865893 -0.6539679096 1
-47.4449676275 119.5560077429 -9.9397867034 -0.5763795645 1
-45.6671916246 119.5560077429 -10.2549728881 -0.2686294546 1
-43.8894156218 119.5560077429 -10.7697875384 -0.024019395 1
-42.1116396189 119.5560077429 -10.8178521035 0.1727265713 1
-40.333863616 119.5560077429 -11.0041463252 -0.3685217282 1
-38.5560876131 119.5560077429 -10.7204922192 -0.2354842932 1
-36.7783116102 119.5560077429 -10.7436252422 -0.2203329149 1
-35.0005356073 119.5560077429 -10.2719643118 0.774802335 1
-33.2227596045 119.5560077429 -10.1193479339 0.3616985246 1
-31.4449836016 119.5560077429 0 -0 0
-29.6672075987 119.5560077429 0 -0 0
-27.8894315958 119.5560077429 -10.6336427893 -0.5667411629 1
-26.1116555929 119.5560077429 -10.9114538559 -0.1966972804 1
-24.33387959 119.5560077429 -10.7092285635 0.5712116858 1
-22.5561035872 119.5560077429 -10.0728699606 0.3736180098 1
-20.7783275843 119.5560077429 -10.2565609118 0.4141033058 1
-19.0005515814 119.5560077429 -9.8739631937 0.6481685445 1
-17.2227755785 119.5560077429 -9.6113593511 -0.9347072977 1
-15.4449995756 119.5560077429 -10.448571446 -0.4474460752 1
-13.6672235727 119.5560077429 -10.6858800333 -0.4973950759 1
-11.8894475698 119.5560077429 -10.3148767496 -0.2754784331 1
-10.111671567 119.5560077429 -10.0337650566 0.0622479505 1
-8.3338955641 119.5560077429 -10.1992946875 -0.0322501976 1
-6.5561195612 119.5560077429 -10.8412958578 -0.2022618069 1
-4.7783435583 119.5560077429 -11.191549586 0.1822590092 1
-3.0005675554 119.5560077429 -10.7369194578 0.1785187767 1
-1.2227915525 119.5560077429 -10.758342742 -0.4844302731 1
0.5549844503 119.5560077429 0 -0 0
2.3327604532 119.5560077429 -10.4062461045 0.3958002233 1
4.1105364561 119.5560077429 -10.7831948113 0.5794181454 1
5.888312459 119.5560077429 -10.6144526186 0.1905041312 1
7.6660884619 119.5560077429 -10.4199956115 0.6001841682 1
9.4438644648 119.5560077429 -9.8378911429 0.6383053281 1
11.2216404676 119.5560077429 -9.6504871661 0.3797452896 1
12.9994164705 119.5560077429 0 -0 0
14.7771924734 119.5560077429 0 -0 0
16.5549684763 119.5560077429 0 -0 0
18.3327444792 119.5560077429 0 -0 0
20.1105204821 119.5560077429 0 -0 0
21.8882964849 119.5560077429 0 -0 0
23.6660724878 119.5560077429 0 -0 0
25.4438484907 119.5560077429 0 -0 0
27.2216244936 119.5560077429 0 -0 0
28.9994004965 119.5560077429 0 -0 0
30.7771764994 119.5560077429 0 -0 0
32.5549525023 119.5560077429 0 -0 0
34.3327285051 119.5560077429 0 -0 0
36.110504508 119.5560077429 -10.8212336345 0.0671509199 1
37.8882805109 119.5560077429 -10.3432936385 0.4396577427 1
39.6660565138 119.5560077429 -10.8776929595 0.4226777745 1
41.4438325167 119.5560077429 -8.7649284136 0.4739269786 1
43.2216085196 119.5560077429 -8.8506731003 0.6608612784 1
44.9993845224 119.5560077429 -9.1803004201 0.7069712426 1
46.7771605253 119.5560077429 -10.9401936478 0.8740373472 1
48.5549365282 119.5560077429 -9.3909505432 -0.1110041435 1
50.3327125311 119.5560077429 -9.3482772398 0.2478176096 1
52.110488534 119.5560077429 -8.8622532152 0.8260529709 1
53.8882645369 119.5560077429 0 -0 0
-125.6671117544 117.77823174 0 -0 0
-123.8893357515 117.77823174 -9.8029975804 0.260374309 1
-122.1115597486 117.77823174 -10.5627587966 -0.3214537948 1
-120.3337837458 117.77823174 -9.8192558498 0.2155215898 1
-118.5560077429 117.77823174 -9.4934489513 -0.5876833146 1
-116.77823174 117.77823174 -9.4371994058 -0.3980583958 1
-115.0004557371 117.77823174 -9.4843976459 -0.0834349643 1
-113.2226797342 117.77823174 -10.4005154726 -0.0244446818 1
-111.4449037313 117.77823174 -9.9160866314 0.3847427672 1
-109.6671277285 117.77823174 -9.7626468868 -0.0517174491 1
-107.8893517256 117.77823174 -9.5986279548 -0.3128907817 1
-106.1115757227 117.77823174 -9.6979947057 -0.1425240508 1
-104.3337997198 117.77823174 -9.8087496914 0.251633735 1
-102.5560237169 117.77823174 -9.7160371749 0.5229981988 1
-100.778247714 117.77823174 -9.3859974558 -0.233934932 1
-99.0004717112 117.77823174 -9.153713553 -0.4426805723 1
-97.2226957083 117.77823174 -10.2002798636 0.1487701817 1
-95.4449197054 117.77823174 -9.3881926229 0.1837382053 1
-93.6671437025 117.77823174 -9.894175055 0.2634930786 1
-91.8893676996 117.77823174 -9.7744947749 -0.5470548244 1
-90.1115916967 117.77823174 -10.2116380275 0.3007479136 1
-88.3338156939 117.77823174 -10.8711067423 0.4433063309 1
-86.556039691 117.77823174 -10.2996122479 -0.5788181617 1
-84.7782636881 117.77823174 -10.7299723912 -0.5774993431 1
-83.0004876852 117.77823174 -10.3940745975 -0.0222337634 1
-81.2227116823 117.77823174 -10.3972434851 0.3088813441 1
-79.4449356794 117.77823174 -10.6034553041 -0.8099722623 1
-77.6671596766 117.77823174 -9.7400250672 0.6876428895 1
-75.8893836737 117.77823174 -10.2657267725 -0.5602200991 1
-74.1116076708 117.77823174 -10.1041765084 -0.1960070843 1
-72.3338316679 117.77823174 0 -0 0
-70.556055665 117.77823174 0 -0 0
-68.7782796621 117.77823174 0 -0 0
-67.0005036592 117.77823174 0 -0 0
-65.2227276564 117.77823174 0 -0 0
-63.4449516535 117.77823174 0 -0 0
-61.6671756506 117.77823174 0 -0 0
-59.8893996477 117.77823174 -10.7797552867 -0.3497876311 1
-58.1116236448 117.77823174 0 -0 0
-56.3338476419 117.77823174 -10.0338767481 -0.274642179 1
-54.5560716391 117.77823174 -10.6250869358 0.2820911413 1
-52.7782956362 117.77823174 -10.2770090435 -0.4714038968 1
-51.0005196333 117.77823174 -10.6750910663 -0.5169625633 1
-49.2227436304 117.77823174 -10.1488530987 -0.6252846795 1
-47.4449676275 117.77823174 -10.1527637323 -0.3202294844 1
-45.6671916246 117.77823174 -10.3024847235 -0.1759613283 1
-43.8894156218 117.77823174 -10.9270126217 -0.1728311031 1
-42.1116396189 117.77823174 -10.7113578613 0.1377112937 1
-40.333863616 117.77823174 -10.9756828982 -0.5436582579 1
-38.5560876131 117.77823174 0 -0 0
-36.7783116102 117.77823174 -10.4131065386 0.2233757917 1
-35.0005356073 117.77823174 -10.0614430635 1.1050983716 1
-33.2227596045 117.77823174 -10.524508762 0.4005743179 1
-31.4449836016 117.77823174 0 -0 0
-29.6672075987 117.77823174 0 -0 0
-27.8894315958 117.77823174 -10.1804073726 -0.3868147872 1
-26.1116555929 117.77823174 -11.0757706319 0.2781575966 1
-24.33387959 117.77823174 -11.0454843427 0.6097910671 1
-22.5561035872 117.77823174 -10.3560722889 0.0591764349 1
-20.7783275843 117.77823174 -9.7815427934 0.2600492581 1
-19.0005515814 117.77823174 -9.7382967132 -0.0722514973 1
-17.2227755785 117.77823174 -9.6718832434 -0.6166214304 1
-15.4449995756 117.77823174 0 -0 0
-13.6672235727 117.77823174 -11.0480639862 -0.5493702746 1
-11.8894475698 117.77823174 -10.6786830928 0.072530726 1
-10.111671567 117.77823174 -10.6719572613 0.3259400691 1
-8.3338955641 117.77823174 0 -0 0
-6.5561195612 117.77823174 0 -0 0
-4.7783435583 117.77823174 -11.0045551447 0.4169056163 1
-3.0005675554 117.77823174 -10.7682317335 0.0015493612 1
-1.2227915525 117.77823174 -10.3930965811 -0.2769848361 1
0.5549844503 117.77823174 -10.7310434838 -0.3467232752 1
2.3327604532 117.77823174 -9.8222557683 0.3305308751 1
4.1105364561 117.77823174 -10.2086008785 0.476533113 1
5.888312459 117.77823174 -10.7973123275 0.1846718315 1
7.6660884619 117.77823174 -9.4456765024 0.3287223324 1
9.4438644648 117.77823174 -9.6718245338 0.5517873927 1
11.2216404676 117.77823174 -9.2700774554 0.7875680978 1
12.9994164705 117.77823174 0 -0 0
14.7771924734 117.77823174 0 -0 0
16.5549684763 117.77823174 0 -0 0
18.3327444792 117.77823174 0 -0 0
20.1105204821 117.77823174 0 -0 0
21.8882964849 117.77823174 0 -0 0
23.6660724878 117.77823174 0 -0 0
25.4438484907 117.77823174 0 -0 0
27.2216244936 117.77823174 0 -0 0