TITLE = "B00008"
VARIABLES = "x", "y", "Vx", "Vy", "isValid"
ZONE T="Frame 0", I=102, J=78, F=POINT
-125.6671117544 126.6671117544 0 -0 0
-123.8893357515 126.6671117544 0 -0 0
-122.1115597486 126.6671117544 0 -0 0
-120.3337837458 126.6671117544 0 -0 0
-118.5560077429 126.6671117544 0 -0 0
-116.77823174 126.6671117544 0 -0 0
-115.0004557371 126.6671117544 0 -0 0
-113.2226797342 126.6671117544 0 -0 0
-111.4449037313 126.6671117544 0 -0 0
-109.6671277285 126.6671117544 0 -0 0
-107.8893517256 126.6671117544 0 -0 0
-106.1115757227 126.6671117544 0 -0 0
-104.3337997198 126.6671117544 0 -0 0
-102.5560237169 126.6671117544 0 -0 0
-100.778247714 126.6671117544 0 -0 0
-99.0004717112 126.6671117544 0 -0 0
-97.2226957083 126.6671117544 0 -0 0
-95.4449197054 126.6671117544 0 -0 0
-93.6671437025 126.6671117544 0 -0 0
-91.8893676996 126.6671117544 0 -0 0
-90.1115916967 126.6671117544 0 -0 0
-88.3338156939 126.6671117544 0 -0 0
-86.556039691 126.6671117544 0 -0 0
-84.7782636881 126.6671117544 0 -0 0
-83.0004876852 126.6671117544 0 -0 0
-81.2227116823 126.6671117544 0 -0 0
-79.4449356794 126.6671117544 0 -0 0
-77.6671596766 126.6671117544 0 -0 0
-75.8893836737 126.6671117544 0 -0 0
-74.1116076708 126.6671117544 0 -0 0
-72.3338316679 126.6671117544 0 -0 0
-70.556055665 126.6671117544 0 -0 0
-68.7782796621 126.6671117544 0 -0 0
-67.0005036592 126.6671117544 0 -0 0
-65.2227276564 126.6671117544 0 -0 0
-63.4449516535 126.6671117544 0 -0 0
-61.6671756506 126.6671117544 0 -0 0
-59.8893996477 126.6671117544 0 -0 0
-58.1116236448 126.6671117544 0 -0 0
-56.3338476419 126.6671117544 0 -0 0
-54.5560716391 126.6671117544 0 -0 0
-52.7782956362 126.6671117544 0 -0 0
-51.0005196333 126.6671117544 0 -0 0
-49.2227436304 126.6671117544 0 -0 0
-47.4449676275 126.6671117544 0 -0 0
-45.6671916246 126.6671117544 0 -0 0
-43.8894156218 126.6671117544 0 -0 0
-42.1116396189 126.6671117544 0 -0 0
-40.333863616 126.6671117544 0 -0 0
-38.5560876131 126.6671117544 0 -0 0
-36.7783116102 126.6671117544 0 -0 0
-35.0005356073 126.6671117544 0 -0 0
-33.2227596045 126.6671117544 0 -0 0
-31.4449836016 126.6671117544 0 -0 0
-29.6672075987 126.6671117544 0 -0 0
-27.8894315958 126.6671117544 0 -0 0
-26.1116555929 126.6671117544 0 -0 0
-24.33387959 126.6671117544 0 -0 0
-22.5561035872 126.6671117544 0 -0 0
-20.7783275843 126.6671117544 0 -0 0
-19.0005515814 126.6671117544 0 -0 0
-17.2227755785 126.6671117544 0 -0 0
-15.4449995756 126.6671117544 0 -0 0
-13.6672235727 126.6671117544 0 -0 0
-11.8894475698 126.6671117544 0 -0 0
-10.111671567 126.6671117544 0 -0 0
-8.3338955641 126.6671117544 0 -0 0
-6.5561195612 126.6671117544 0 -0 0
-4.7783435583 126.6671117544 0 -0 0
-3.0005675554 126.6671117544 0 -0 0
-1.2227915525 126.6671117544 0 -0 0
0.5549844503 126.6671117544 0 -0 0
2.3327604532 126.6671117544 0 -0 0
4.1105364561 126.6671117544 0 -0 0
5.888312459 126.6671117544 0 -0 0
7.6660884619 126.6671117544 0 -0 0
9.4438644648 126.6671117544 0 -0 0
11.2216404676 126.6671117544 0 -0 0
12.9994164705 126.6671117544 0 -0 0
14.7771924734 126.6671117544 0 -0 0
16.5549684763 126.6671117544 0 -0 0
18.3327444792 126.6671117544 0 -0 0
20.1105204821 126.6671117544 0 -0 0
21.8882964849 126.6671117544 0 -0 0
23.6660724878 126.6671117544 0 -0 0
25.4438484907 126.6671117544 0 -0 0
27.2216244936 126.6671117544 0 -0 0
28.9994004965 126.6671117544 0 -0 0
30.7771764994 126.6671117544 0 -0 0
32.5549525023 126.6671117544 0 -0 0
34.3327285051 126.6671117544 0 -0 0
36.110504508 126.6671117544 0 -0 0
37.8882805109 126.6671117544 0 -0 0
39.6660565138 126.6671117544 0 -0 0
41.4438325167 126.6671117544 0 -0 0
43.2216085196 126.6671117544 0 -0 0
44.9993845224 126.6671117544 0 -0 0
46.7771605253 126.6671117544 0 -0 0
48.5549365282 126.6671117544 0 -0 0
50.3327125311 126.6671117544 0 -0 0
52.110488534 126.6671117544 0 -0 0
53.8882645369 126.6671117544 0 -0 0
-125.6671117544 124.8893357515 0 -0 0
-123.8893357515 124.8893357515 0 -0 0
-122.1115597486 124.8893357515 -10.1266608617 0.258595837 1
-120.3337837458 124.8893357515 -10.5836458185 0.4203293896 1
-118.5560077429 124.8893357515 -9.4273920351 -0.2931013433 1
-116.77823174 124.8893357515 -10.0199124497 -0.0461199878 1
-115.0004557371 124.8893357515 -9.7126921584 0.0245248706 1
-113.2226797342 124.8893357515 -9.3580860425 0.3932699817 1
-111.4449037313 124.8893357515 -9.5057765399 0.4369928987 1
-109.6671277285 124.8893357515 -9.6527754094 0.4930892264 1
-107.8893517256 124.8893357515 -9.3959766596 0.3693121602 1
-106.1115757227 124.8893357515 -10.0507536165 -0.3552018038 1
-104.3337997198 124.8893357515 -10.4003207285 -0.1231799463 1
-102.5560237169 124.8893357515 -9.9655029497 -0.0463075722 1
-100.778247714 124.8893357515 -10.0867397508 0.0302440469 1
-99.0004717112 124.8893357515 -10.0942731976 0.0880300662 1
-97.2226957083 124.8893357515 -10.0186637963 0.1978814964 1
-95.4449197054 124.8893357515 -9.9904230363 0.1392119689 1
-93.6671437025 124.8893357515 -9.8325829339 -0.5072711799 1
-91.8893676996 124.8893357515 -10.1062714396 -0.3420565763 1
-90.1115916967 124.8893357515 -10.3432979343 0.0285428998 1
-88.3338156939 124.8893357515 -10.6966346336 0.3315790567 1
-86.556039691 124.8893357515 -10.2169419406 -0.5251403841 1
-84.7782636881 124.8893357515 -9.8438967076 -0.5485712509 1
-83.0004876852 124.8893357515 -10.5426171005 0.0841810061 1
-81.2227116823 124.8893357515 -9.9595245919 0.2267451512 1
-79.4449356794 124.8893357515 -10.2855892399 0.7136798909 1
-77.6671596766 124.8893357515 -9.6725218896 0.1579918882 1
-75.8893836737 124.8893357515 -9.8763187383 -0.4847882586 1
-74.1116076708 124.8893357515 -9.9030172968 -0.4171633659 1
-72.3338316679 124.8893357515 0 -0 0
-70.556055665 124.8893357515 0 -0 0
-68.7782796621 124.8893357515 0 -0 0
-67.0005036592 124.8893357515 0 -0 0
-65.2227276564 124.8893357515 0 -0 0
-63.4449516535 124.8893357515 0 -0 0
-61.6671756506 124.8893357515 0 -0 0
-59.8893996477 124.8893357515 0 -0 0
-58.1116236448 124.8893357515 -9.8274436941 0.2137202068 1
-56.3338476419 124.8893357515 -9.8493495428 0.2690031914 1
-54.5560716391 124.8893357515 -9.6650929745 0.1776596115 1
-52.7782956362 124.8893357515 -10.4634149567 0.0249787962 1
-51.0005196333 124.8893357515 -10.9410091387 -0.2288386504 1
-49.2227436304 124.8893357515 -9.5825071518 -0.2242979623 1
-47.4449676275 124.8893357515 0 -0 0
-45.6671916246 124.8893357515 -10.6443680348 -0.0263992826 1
-43.8894156218 124.8893357515 0 -0 0
-42.1116396189 124.8893357515 -10.2413851905 0.4693433322 1
-40.333863616 124.8893357515 -10.2161601003 -0.3680477554 1
-38.5560876131 124.8893357515 -9.6079212583 -0.6877431255 1
-36.7783116102 124.8893357515 -9.625234869 0.0513852385 1
-35.0005356073 124.8893357515 -9.6963393808 -0.6835847659 1
-33.2227596045 124.8893357515 -10.1261181557 -0.341914814 1
-31.4449836016 124.8893357515 -9.7734594809 0.1813683413 1
-29.6672075987 124.8893357515 -9.3727419688 0.0775367952 1
-27.8894315958 124.8893357515 -10.2544258863 0.0372219002 1
-26.1116555929 124.8893357515 -9.8865084376 0.060088582 1
-24.33387959 124.8893357515 0 -0 0
-22.5561035872 124.8893357515 -10.9001658572 0.0690783138 1
-20.7783275843 124.8893357515 0 -0 0
-19.0005515814 124.8893357515 -10.9705901965 0.6478893158 1
-17.2227755785 124.8893357515 -10.421761196 0.0438804305 1
-15.4449995756 124.8893357515 -10.7777426922 -0.3575816914 1
-13.6672235727 124.8893357515 -10.5617929517 0.2432038925 1
-11.8894475698 124.8893357515 -10.9772644781 -0.1774075897 1
-10.111671567 124.8893357515 -10.1606866674 -0.6079610452 1
-8.3338955641 124.8893357515 -9.7771796662 -0.1667066872 1
-6.5561195612 124.8893357515 -9.6148876562 -0.2619336938 1
-4.7783435583 124.8893357515 -10.8674710416 0.2804572955 1
-3.0005675554 124.8893357515 -10.055627947 0.392647087 1
-1.2227915525 124.8893357515 -9.5645677825 0.3035903184 1
0.5549844503 124.8893357515 -10.2262524275 0.3862935603 1
2.3327604532 124.8893357515 -10.1967100322 -0.1311887979 1
4.1105364561 124.8893357515 -9.9886302449 0.2636047701 1
5.888312459 124.8893357515 -9.5470708832 -0.2066736202 1
7.6660884619 124.8893357515 -9.1995442885 0.4703027334 1
9.4438644648 124.8893357515 -10.3878427859 0.7365580281 1
11.2216404676 124.8893357515 -10.3878714248 -0.0003021398 1
12.9994164705 124.8893357515 0 -0 0
14.7771924734 124.8893357515 0 -0 0
16.5549684763 124.8893357515 0 -0 0
18.3327444792 124.8893357515 0 -0 0
20.1105204821 124.8893357515 0 -0 0
21.8882964849 124.8893357515 0 -0 0
23.6660724878 124.8893357515 0 -0 0
25.4438484907 124.8893357515 0 -0 0
27.2216244936 124.8893357515 0 -0 0
28.9994004965 124.8893357515 0 -0 0
30.7771764994 124.8893357515 0 -0 0
32.5549525023 124.8893357515 0 -0 0
34.3327285051 124.8893357515 0 -0 0
36.110504508 124.8893357515 0 -0 0
37.8882805109 124.8893357515 -9.9251064341 0.1032029235 1
39.6660565138 124.8893357515 -9.9373853367 -0.3861976202 1
41.4438325167 124.8893357515 0 -0 0
43.2216085196 124.8893357515 -10.4060570881 0.7886807168 1
44.9993845224 124.8893357515 -10.2226038393 0.5476977663 1
46.7771605253 124.8893357515 -9.4039425529 0.3171937674 1
48.5549365282 124.8893357515 -9.5267731054 0.4619416241 1
50.3327125311 124.8893357515 -9.6336060019 0.6704882244 1
52.110488534 124.8893357515 -10.2817960256 -0.2087900305 1
53.8882645369 124.8893357515 0 -0 0
-125.6671117544 123.1115597486 0 -0 0
-123.8893357515 123.1115597486 0 -0 0
-122.1115597486 123.1115597486 -9.498689859 0.2185458513 1
-120.3337837458 123.1115597486 -10.3245967718 0.1556950532 1
-118.5560077429 123.1115597486 -9.841097261 0.3543598219 1
-116.77823174 123.1115597486 -9.9923590219 0.1918043346 1
-115.0004557371 123.1115597486 -9.9919953086 0.0718476897 1
-113.2226797342 123.1115597486 -9.5370386976 -0.4959216076 1
-111.4449037313 123.1115597486 -9.4351187941 -0.1274757723 1
-109.6671277285 123.1115597486 -9.7654663806 0.3921229962 1
-107.8893517256 123.1115597486 -9.6685339311 -0.1006540668 1
-106.1115757227 123.1115597486 -9.626172791 -0.6795108909 1
-104.3337997198 123.1115597486 -10.4618326608 0.1824938477 1
-102.5560237169 123.1115597486 -9.9106753226 -0.1302709231 1
-100.778247714 123.1115597486 -10.3160881725 -0.6186447645 1
-99.0004717112 123.1115597486 -9.8946633472 0.043425073 1
-97.2226957083 123.1115597486 -10.1367932832 0.3073792369 1
-95.4449197054 123.1115597486 -10.3259785959 -0.493962711 1
-93.6671437025 123.1115597486 -9.8027441266 -0.1172116121 1
-91.8893676996 123.1115597486 -10.2904406594 -0.5779375174 1
-90.1115916967 123.1115597486 -10.0867555021 -0.2802811666 1
-88.3338156939 123.1115597486 -10.6673621594 0.2851168347 1
-86.556039691 123.1115597486 -9.7973056109 -0.0447739623 1
-84.7782636881 123.1115597486 -9.5999152706 -0.1162951692 1
-83.0004876852 123.1115597486 -10.0790187195 0.0498974508 1
-81.2227116823 123.1115597486 -9.9206860291 0.1737074516 1
-79.4449356794 123.1115597486 -10.5868598123 -0.0952040956 1
-77.6671596766 123.1115597486 -9.945399916 0.2264630586 1
-75.8893836737 123.1115597486 -9.7012924681 -0.5568364201 1
-74.1116076708 123.1115597486 -9.6408902909 -0.2037023406 1
-72.3338316679 123.1115597486 0 -0 0
-70.556055665 123.1115597486 0 -0 0
-68.7782796621 123.1115597486 0 -0 0
-67.0005036592 123.1115597486 0 -0 0
-65.2227276564 123.1115597486 0 -0 0
-63.4449516535 123.1115597486 0 -0 0
-61.6671756506 123.1115597486 0 -0 0
-59.8893996477 123.1115597486 -10.7993499809 0.0651777038 1
-58.1116236448 123.1115597486 -9.8288427014 -0.073591795 1
-56.3338476419 123.1115597486 -10.3218674904 -0.6434488637 1
-54.5560716391 123.1115597486 -10.1060208497 -0.4798280115 1
-52.7782956362 123.1115597486 -9.7582966471 -0.4885156036 1
-51.0005196333 123.1115597486 0 -0 0
-49.2227436304 123.1115597486 -9.8146722034 -0.413433157 1
-47.4449676275 123.1115597486 -9.9833649942 0.1985602369 1
-45.6671916246 123.1115597486 -10.096090332 0.2152409292 1
-43.8894156218 123.1115597486 -10.1963405911 0.8633078058 1
-42.1116396189 123.1115597486 -9.6969107256 0.6999618865 1
-40.333863616 123.1115597486 -10.5898110448 0.3373798537 1
-38.5560876131 123.1115597486 -9.072542489 -0.6111342287 1
-36.7783116102 123.1115597486 -9.5780051262 -0.8770902476 1
-35.0005356073 123.1115597486 -10.2799387968 0.283554586 1
-33.2227596045 123.1115597486 -10.3355668795 0.374922509 1
-31.4449836016 123.1115597486 0 -0 0
-29.6672075987 123.1115597486 -10.1166630427 -0.3400489936 1
-27.8894315958 123.1115597486 -10.4437415056 -0.3596909419 1
-26.1116555929 123.1115597486 -10.8038963968 -0.3396953039 1
-24.33387959 123.1115597486 0 -0 0
-22.5561035872 123.1115597486 -10.4299690875 -0.2158323212 1
-20.7783275843 123.1115597486 0 -0 0
-19.0005515814 123.1115597486 -10.9531827936 0.5864203418 1
-17.2227755785 123.1115597486 -10.9223853011 0.1087359474 1
-15.4449995756 123.1115597486 -10.8215364902 -0.2559911345 1
-13.6672235727 123.1115597486 -11.1927073112 -0.2736570029 1
-11.8894475698 123.1115597486 -11.043627114 -0.3853026565 1
-10.111671567 123.1115597486 -10.012254424 -0.3483256183 1
-8.3338955641 123.1115597486 -10.0263705081 -0.4196692644 1
-6.5561195612 123.1115597486 -9.2026057805 -0.4844159537 1
-4.7783435583 123.1115597486 -10.1572958287 1.0430036389 1
-3.0005675554 123.1115597486 -10.0477880646 0.257510425 1
-1.2227915525 123.1115597486 -10.1598833479 0.4297172014 1
0.5549844503 123.1115597486 -10.4735717213 -0.1779588874 1
2.3327604532 123.1115597486 -10.0687402399 -0.1106762288 1
4.1105364561 123.1115597486 -9.6291225915 0.1954314436 1
5.888312459 123.1115597486 -9.3168518407 -0.199743021 1
7.6660884619 123.1115597486 -10.0933581867 0.422543172 1
9.4438644648 123.1115597486 -10.2273879575 0.4729675774 1
11.2216404676 123.1115597486 0 -0 0
12.9994164705 123.1115597486 -10.4980550655 0.5682776367 1
14.7771924734 123.1115597486 0 -0 0
16.5549684763 123.1115597486 0 -0 0
18.3327444792 123.1115597486 0 -0 0
20.1105204821 123.1115597486 0 -0 0
21.8882964849 123.1115597486 0 -0 0
23.6660724878 123.1115597486 0 -0 0
25.4438484907 123.1115597486 0 -0 0
27.2216244936 123.1115597486 0 -0 0
28.9994004965 123.1115597486 0 -0 0
30.7771764994 123.1115597486 0 -0 0
32.5549525023 123.1115597486 0 -0 0
34.3327285051 123.1115597486 0 -0 0
36.110504508 123.1115597486 0 -0 0
37.8882805109 123.1115597486 -10.0275933866 0.0969367454 1
39.6660565138 123.1115597486 -9.9048100882 -0.4526869829 1
41.4438325167 123.1115597486 -9.3516322799 0.2377424657 1
43.2216085196 123.1115597486 -10.2383351541 1.2092564005 1
44.9993845224 123.1115597486 -10.5626263419 1.1868994901 1
46.7771605253 123.1115597486 -9.9044764457 0.748214036 1
48.5549365282 123.1115597486 -10.21404369 0.1446017986 1
50.3327125311 123.1115597486 -9.057038853 0.4937994696 1
52.110488534 123.1115597486 -10.6665101539 0.6056871213 1
53.8882645369 123.1115597486 0 -0 0
-125.6671117544 121.3337837458 0 -0 0
-123.8893357515 121.3337837458 -10.3211729985 -0.4173967724 1
-122.1115597486 121.3337837458 -9.561320138 0.0282464878 1
-120.3337837458 121.3337837458 -10.3556541618 0.2852013193 1
-118.5560077429 121.3337837458 -10.1456970986 0.159922146 1
-116.77823174 121.3337837458 -9.9016970463 0.4569727853 1
-115.0004557371 121.3337837458 -10.0982769074 0.071863441 1
-113.2226797342 121.3337837458 -9.7337359779 -0.3644679004 1
-111.4449037313 121.3337837458 -9.8138030147 0.0329174826 1
-109.6671277285 121.3337837458 -10.0464635182 0.1918544525 1
-107.8893517256 121.3337837458 -9.7627084604 0.0032419167 1
-106.1115757227 121.3337837458 -9.590105036 -0.9807585523 1
-104.3337997198 121.3337837458 -10.6708546659 -0.1170798734 1
-102.5560237169 121.3337837458 -10.1339480145 -0.213246234 1
-100.778247714 121.3337837458 -10.0354232454 0.3464139758 1
-99.0004717112 121.3337837458 -9.6529816091 0.22307222 1
-97.2226957083 121.3337837458 -9.934415489 -0.0054127407 1
-95.4449197054 121.3337837458 -10.3794315586 -0.4077096848 1
-93.6671437025 121.3337837458 -9.8217388372 0.2765366383 1
-91.8893676996 121.3337837458 -9.6997574263 -0.622135839 1
-90.1115916967 121.3337837458 -10.0480687252 -0.6340939866 1
-88.3338156939 121.3337837458 -9.981764083 -0.2057872481 1
-86.556039691 121.3337837458 -9.7169679372 -0.3936107839 1
-84.7782636881 121.3337837458 -9.5572605825 -0.2816615587 1
-83.0004876852 121.3337837458 -9.8847815155 -0.0833819824 1
-81.2227116823 121.3337837458 -9.7667479687 -0.3277085175 1
-79.4449356794 121.3337837458 -10.2455678931 -0.4771588716 1
-77.6671596766 121.3337837458 -8.9634886505 -0.0417368134 1
-75.8893836737 121.3337837458 -9.5420805654 -0.1944920897 1
-74.1116076708 121.3337837458 -9.8246442475 0.205568161 1
-72.3338316679 121.3337837458 0 -0 0
-70.556055665 121.3337837458 0 -0 0
-68.7782796621 121.3337837458 0 -0 0
-67.0005036592 121.3337837458 0 -0 0
-65.2227276564 121.3337837458 0 -0 0
-63.4449516535 121.3337837458 0 -0 0
-61.6671756506 121.3337837458 0 -0 0
-59.8893996477 121.3337837458 -10.842773622 0.2770292263 1
-58.1116236448 121.3337837458 -10.0626544864 -0.3747349246 1
-56.3338476419 121.3337837458 -10.0418211623 -0.1363824515 1
-54.5560716391 121.3337837458 -9.9009567323 0.476879643 1
-52.7782956362 121.3337837458 -9.5567135806 0.4540530556 1
-51.0005196333 121.3337837458 -9.6814500479 -0.2562345647 1
-49.2227436304 121.3337837458 -10.1895345708 0.0560505056 1
-47.4449676275 121.3337837458 -10.70126625 0.3708343146 1
-45.6671916246 121.3337837458 -10.0327569695 -0.2830390869 1
-43.8894156218 121.3337837458 -10.5857414656 -0.0819271294 1
-42.1116396189 121.3337837458 0 -0 0
-40.333863616 121.3337837458 -10.3373267362 0.4592467092 1
-38.5560876131 121.3337837458 -9.4383635746 -0.6312343985 1
-36.7783116102 121.3337837458 -9.8194276828 -1.1018507272 1
-35.0005356073 121.3337837458 -11.1274186318 -0.490852533 1
-33.2227596045 121.3337837458 -10.7659749929 0.3049721424 1
-31.4449836016 121.3337837458 -10.7364626683 0.4559131483 1
-29.6672075987 121.3337837458 -10.2905838536 0.3067677977 1
-27.8894315958 121.3337837458 -9.9625245104 0.0564886798 1
-26.1116555929 121.3337837458 0 -0 0
-24.33387959 121.3337837458 0 -0 0
-22.5561035872 121.3337837458 -9.9458896402 -0.1066066497 1
-20.7783275843 121.3337837458 -10.842204425 0.0420847753 1
-19.0005515814 121.3337837458 -10.8901930971 0.6653518485 1
-17.2227755785 121.3337837458 -10.7291690718 0.5970424875 1
-15.4449995756 121.3337837458 -10.7249562984 0.085763302 1
-13.6672235727 121.3337837458 -11.0303286686 -0.457030063 1
-11.8894475698 121.3337837458 -10.6645355059 -0.3425534601 1
-10.111671567 121.3337837458 -10.2215828647 -0.2635560841 1
-8.3338955641 121.3337837458 -8.9314274692 -0.0250675766 1
-6.5561195612 121.3337837458 -9.3023061739 -0.7085592663 1
-4.7783435583 121.3337837458 -10.1558724784 -1.2390207468 1
-3.0005675554 121.3337837458 -10.2460418659 -0.3124425838 1
-1.2227915525 121.3337837458 -10.6142793536 -0.397336697 1
0.5549844503 121.3337837458 -10.0058393238 -0.5229881752 1
2.3327604532 121.3337837458 -9.9975856101 -0.1426729727 1
4.1105364561 121.3337837458 -8.9721919939 0.5598563858 1
5.888312459 121.3337837458 -10.3058512192 -0.2368245909 1
7.6660884619 121.3337837458 -11.0816501858 0.1567088682 1
9.4438644648 121.3337837458 -9.9153534771 0.2877358566 1
11.2216404676 121.3337837458 -10.1407654903 0.7950585864 1
12.9994164705 121.3337837458 -9.8715460756 0.8189390831 1
14.7771924734 121.3337837458 0 -0 0
16.5549684763 121.3337837458 0 -0 0
18.3327444792 121.3337837458 0 -0 0
20.1105204821 121.3337837458 0 -0 0
21.8882964849 121.3337837458 0 -0 0
23.6660724878 121.3337837458 0 -0 0
25.4438484907 121.3337837458 0 -0 0
27.2216244936 121.3337837458 0 -0 0
28.9994004965 121.3337837458 0 -0 0
30.7771764994 121.3337837458 0 -0 0
32.5549525023 121.3337837458 0 -0 0
34.3327285051 121.3337837458 0 -0 0
36.110504508 121.3337837458 0 -0 0
37.8882805109 121.3337837458 -9.8083201088 0.3585153176 1
39.6660565138 121.3337837458 -9.8830617532 -0.1819353903 1
41.4438325167 121.3337837458 -9.7996955221 -0.6136429911 1
43.2216085196 121.3337837458 -9.6618052357 0.4821835561 1
44.9993845224 121.3337837458 -10.1866248647 0.9915797379 1
46.7771605253 121.3337837458 -10.4793281281 -0.1710741103 1
48.5549365282 121.3337837458 -10.6331502012 0.3294311437 1
50.3327125311 121.3337837458 -10.0363826466 0.8354193035 1
52.110488534 121.3337837458 -10.3126629673 0.5842996357 1
53.8882645369 121.3337837458 0 -0 0
-125.6671117544 119.5560077429 0 -0 0
-123.8893357515 119.5560077429 -10.239374744 0.2463928273 1
-122.1115597486 119.5560077429 -10.1696864228 0.1006941612 1
-120.3337837458 119.5560077429 -10.1869040934 0.0520124291 1
-118.5560077429 119.5560077429 -9.9073947435 0.0211111208 1
-116.77823174 119.5560077429 -9.8423774172 -0.1176411947 1
-115.0004557371 119.5560077429 -10.1336831052 0.1037083991 1
-113.2226797342 119.5560077429 -10.0414631768 -0.1696350086 1
-111.4449037313 119.5560077429 -10.3805012193 -0.1140212453 1
-109.6671277285 119.5560077429 -10.6198760989 0.0079687572 1
-107.8893517256 119.5560077429 -10.5157123423 0.3095543568 1
-106.1115757227 119.5560077429 -9.8543470203 -0.4077583709 1
-104.3337997198 119.5560077429 -10.0578861195 -0.5241852787 1
-102.5560237169 119.5560077429 -10.0693559749 -0.2085709434 1
-100.778247714 119.5560077429 -10.4613730074 0.4498059156 1
-99.0004717112 119.5560077429 -10.0703683579 0.3017631604 1
-97.2226957083 119.5560077429 -10.2192487992 -0.2821656023 1
-95.4449197054 119.5560077429 -10.4540586477 0.1021246712 1
-93.6671437025 119.5560077429 -9.9892101814 0.2055423861 1
-91.8893676996 119.5560077429 -10.2936267304 -0.3118826945 1
-90.1115916967 119.5560077429 -10.2116552108 -0.2195038205 1
-88.3338156939 119.5560077429 -9.8276370063 -0.2835603138 1
-86.556039691 119.5560077429 -9.84413441 -0.0040366445 1
-84.7782636881 119.5560077429 0 -0 0
-83.0004876852 119.5560077429 -10.4976326427 -0.2142070671 1
-81.2227116823 119.5560077429 -10.1663199272 -0.4432189825 1
-79.4449356794 119.5560077429 -10.0887874278 -0.1120337098 1
-77.6671596766 119.5560077429 -9.6739810384 0.0671008019 1
-75.8893836737 119.5560077429 -10.1161790463 0.238353905 1
-74.1116076708 119.5560077429 -10.3079432864 -0.1144322127 1
-72.3338316679 119.5560077429 0 -0 0
-70.556055665 119.5560077429 0 -0 0
-68.7782796621 119.5560077429 0 -0 0
-67.0005036592 119.5560077429 0 -0 0
-65.2227276564 119.5560077429 0 -0 0
-63.4449516535 119.5560077429 0 -0 0
-61.6671756506 119.5560077429 0 -0 0
-59.8893996477 119.5560077429 -10.5836157477 0.0764771581 1
-58.1116236448 119.5560077429 -9.880597381 -0.3671098334 1
-56.3338476419 119.5560077429 -10.0649957116 0.4222338725 1
-54.5560716391 119.5560077429 -9.6744220766 0.4020678334 1
-52.7782956362 119.5560077429 -9.9741661988 0.1029738128 1
-51.0005196333 119.5560077429 -10.165336183 0.0772088805 1
-49.2227436304 119.5560077429 -10.3961953036 -0.0102655922 1
-47.4449676275 119.5560077429 -10.7035709607 -0.5374178547 1
-45.6671916246 119.5560077429 -9.8674120591 -0.2903978368 1
-43.8894156218 119.5560077429 -10.4751797922 0.2824849253 1
-42.1116396189 119.5560077429 -10.0658033268 0.3331169624 1
-40.333863616 119.5560077429 -10.6634057037 -0.0543665418 1
-38.5560876131 119.5560077429 -9.7256154349 -0.4149209447 1
-36.7783116102 119.5560077429 -10.0616048729 0.3021283056 1
-35.0005356073 119.5560077429 -11.0215408406 -0.0588657035 1
-33.2227596045 119.5560077429 -10.8873893547 -0.0512520679 1
-31.4449836016 119.5560077429 -10.5467138865 -0.3562227784 1
-29.6672075987 119.5560077429 -11.0510796561 0.2665660262 1
-27.8894315958 119.5560077429 -10.5604705533 0.2901186081 1
-26.1116555929 119.5560077429 0 -0 0
-24.33387959 119.5560077429 -10.1690420489 0.5201514981 1
-22.5561035872 119.5560077429 -9.6363510347 -0.2991928245 1
-20.7783275843 119.5560077429 -10.2398959708 -0.2663397793 1
-19.0005515814 119.5560077429 -10.7266302386 0.436835385 1
-17.2227755785 119.5560077429 -10.6435797508 0.1226902222 1
-15.4449995756 119.5560077429 -10.0861154241 -0.0227148959 1
-13.6672235727 119.5560077429 -10.1016276517 0.2554240855 1
-11.8894475698 119.5560077429 -10.1633257365 0.2552808913 1
-10.111671567 119.5560077429 -10.5874547842 -0.3157016838 1
-8.3338955641 119.5560077429 0 -0 0
-6.5561195612 119.5560077429 -9.4332286306 -1.0613267687 1
-4.7783435583 119.5560077429 -10.8708697559 -1.295129962 1
-3.0005675554 119.5560077429 -11.0560356073 0.2013596835 1
-1.2227915525 119.5560077429 0 -0 0
0.5549844503 119.5560077429 -10.0038732674 -0.0002577496 1
2.3327604532 119.5560077429 -10.236313252 0.1396501432 1
4.1105364561 119.5560077429 -9.8291720481 0.3492391973 1
5.888312459 119.5560077429 -10.1743402343 0.7136068618 1
7.6660884619 119.5560077429 -10.8336721986 -0.2266220042 1
9.4438644648 119.5560077429 0 -0 0
11.2216404676 119.5560077429 0 -0 0
12.9994164705 119.5560077429 0 -0 0
14.7771924734 119.5560077429 0 -0 0
16.5549684763 119.5560077429 0 -0 0
18.3327444792 119.5560077429 0 -0 0
20.1105204821 119.5560077429 0 -0 0
21.8882964849 119.5560077429 0 -0 0
23.6660724878 119.5560077429 0 -0 0
25.4438484907 119.5560077429 0 -0 0
27.2216244936 119.5560077429 0 -0 0
28.9994004965 119.5560077429 0 -0 0
30.7771764994 119.5560077429 0 -0 0
32.5549525023 119.5560077429 0 -0 0
34.3327285051 119.5560077429 0 -0 0
36.110504508 119.5560077429 -9.8437979036 0.2984238717 1
37.8882805109 119.5560077429 -10.2700283263 0.6714576492 1
39.6660565138 119.5560077429 -10.0937233319 0.4580109433 1
41.4438325167 119.5560077429 -9.2961960774 -0.4218672954 1
43.2216085196 119.5560077429 -9.6284166441 -0.4929045058 1
44.9993845224 119.5560077429 -10.266183562 0.0216123005 1
46.7771605253 119.5560077429 -10.5728919341 -0.1291038904 1
48.5549365282 119.5560077429 0 -0 0
50.3327125311 119.5560077429 -10.2414396043 0.7953950928 1
52.110488534 119.5560077429 -9.9125540305 0.3075696852 1
53.8882645369 119.5560077429 0 -0 0
-125.6671117544 117.77823174 0 -0 0
-123.8893357515 117.77823174 -10.1901803767 0.4353504612 1
-122.1115597486 117.77823174 -10.271689379 -0.4395689623 1
-120.3337837458 117.77823174 -9.7411190709 -0.4696511998 1
-118.5560077429 117.77823174 -9.7297208126 -0.2763476219 1
-116.77823174 117.77823174 -9.7277934187 -0.3434140573 1
-115.0004557371 117.77823174 -10.2841687535 -0.1872035049 1
-113.2226797342 117.77823174 -10.1423578098 0.0087291184 1
-111.4449037313 117.77823174 -9.9527171396 0.2499426115 1
-109.6671277285 117.77823174 -10.436524518 0.0504931387 1
-107.8893517256 117.77823174 -10.3247614452 0.1149076174 1
-106.1115757227 117.77823174 -9.7725086714 0.05263246 1
-104.3337997198 117.77823174 -10.0218283881 -0.6069629816 1
-102.5560237169 117.77823174 -9.737980254 -0.4174497543 1
-100.778247714 117.77823174 -10.2558449408 0.3666301329 1
-99.0004717112 117.77823174 -10.1600924115 0.4818012276 1
-97.2226957083 117.77823174 -10.1062828951 -0.2748268995 1
-95.4449197054 117.77823174 -10.4353245506 0.4265755206 1
-93.6671437025 117.77823174 -9.9845492102 -0.2331502277 1
-91.8893676996 117.77823174 -10.35248957 0.1640490028 1
-90.1115916967 117.77823174 -9.8777893428 0.3370132765 1
-88.3338156939 117.77823174 -9.7933491552 -0.1121053069 1
-86.556039691 117.77823174 -10.3420378254 -0.0915956017 1
-84.7782636881 117.77823174 -10.4604680201 -0.0423425248 1
-83.0004876852 117.77823174 -10.5702757761 -0.6899540439 1
-81.2227116823 117.77823174 -10.1190701372 -0.4506049393 1
-79.4449356794 117.77823174 -10.08330309 -0.2750774894 1
-77.6671596766 117.77823174 -10.1683933792 0.1184631294 1
-75.8893836737 117.77823174 -10.041877008 0.4171132479 1
-74.1116076708 117.77823174 0 -0 0
-72.3338316679 117.77823174 0 -0 0
-70.556055665 117.77823174 0 -0 0
-68.7782796621 117.77823174 0 -0 0
-67.0005036592 117.77823174 0 -0 0
-65.2227276564 117.77823174 0 -0 0
-63.4449516535 117.77823174 0 -0 0
-61.6671756506 117.77823174 0 -0 0
-59.8893996477 117.77823174 -10.2354168563 -0.3994559712 1
-58.1116236448 117.77823174 -9.9064382063 0.2365897524 1
-56.3338476419 117.77823174 -10.2111855338 0.4272657167 1
-54.5560716391 117.77823174 -10.0916269688 -0.0469576739 1
-52.7782956362 117.77823174 -10.758712899 -0.238945297 1
-51.0005196333 117.77823174 -10.2962314328 -0.7642088281 1
-49.2227436304 117.77823174 -10.188961794 0.2310194981 1
-47.4449676275 117.77823174 -10.4750079591 -0.2195754176 1
-45.6671916246 117.77823174 -10.1206753441 -0.2532718767 1
-43.8894156218 117.77823174 -10.0285484919 0.7116236221 1
-42.1116396189 117.77823174 -10.2102533396 0.1075474356 1
-40.333863616 117.77823174 -10.6610809458 -0.2940979749 1
-38.5560876131 117.77823174 -10.6176379736 -0.0972231338 1
-36.7783116102 117.77823174 -10.6061938931 0.1076519673 1
-35.0005356073 117.77823174 -10.7590551332 -0.2160585681 1
-33.2227596045 117.77823174 -10.326296487 0.4526798232 1
-31.4449836016 117.77823174 -10.4962565464 0.0047239766 1
-29.6672075987 117.77823174 -10.803348679 0.9248999269 1
-27.8894315958 117.77823174 0 -0 0
-26.1116555929 117.77823174 -10.076240752 -0.0206185328 1
-24.33387959 117.77823174 -9.8537112381 -0.5365844645 1
-22.5561035872 117.77823174 -9.9105779506 -0.8731194724 1
-20.7783275843 117.77823174 -11.0434567129 0.5394626679 1
-19.0005515814 117.77823174 -10.6282479478 -0.0441968897 1
-17.2227755785 117.77823174 -10.3442573355 -0.6518686826 1
-15.4449995756 117.77823174 -10.4534815751 0.0849299117 1
-13.6672235727 117.77823174 -10.3938225757 0.1230582313 1
-11.8894475698 117.77823174 -10.3079031921 0.6203444796 1
-10.111671567 117.77823174 -10.8925293105 -0.305576422 1
-8.3338955641 117.77823174 -10.453039105 0.5157711876 1
-6.5561195612 117.77823174 -10.8309923192 -0.2947437808 1
-4.7783435583 117.77823174 -9.5822422425 -0.1489019204 1
-3.0005675554 117.77823174 -10.274083586 0.1604390771 1
-1.2227915525 117.77823174 -9.8050524171 1.0602972024 1
0.5549844503 117.77823174 -9.2886125126 0.3312726211 1
2.3327604532 117.77823174 -10.5053923363 0.5487889061 1
4.1105364561 117.77823174 -10.4744838683 0.4863906017 1
5.888312459 117.77823174 -9.8546892545 0.2331215889 1
7.6660884619 117.77823174 -10.7266474219 0.2057213788 1
9.4438644648 117.77823174 -10.7721280476 -0.0711016479 1
11.2216404676 117.77823174 0 -0 0
12.9994164705 117.77823174 0 -0 0
14.7771924734 117.77823174 0 -0 0
16.5549684763 117.77823174 0 -0 0
18.3327444792 117.77823174 0 -0 0
20.1105204821 117.77823174 0 -0 0