TITLE = "B00012"
VARIABLES = "x", "y", "Vx", "Vy", "isValid"
ZONE T="Frame 0", I=102, J=78, F=POINT
-125.6671117544 126.6671117544 0 -0 0
-123.8893357515 126.6671117544 0 -0 0
-122.1115597486 126.6671117544 0 -0 0
-120.3337837458 126.6671117544 0 -0 0
-118.5560077429 126.6671117544 0 -0 0
-116.77823174 126.6671117544 0 -0 0
-115.0004557371 126.6671117544 0 -0 0
-113.2226797342 126.6671117544 0 -0 0
-111.4449037313 126.6671117544 0 -0 0
-109.6671277285 126.6671117544 0 -0 0
-107.8893517256 126.6671117544 0 -0 0
-106.1115757227 126.6671117544 0 -0 0
-104.3337997198 126.6671117544 0 -0 0
-102.5560237169 126.6671117544 0 -0 0
-100.778247714 126.6671117544 0 -0 0
-99.0004717112 126.6671117544 0 -0 0
-97.2226957083 126.6671117544 0 -0 0
-95.4449197054 126.6671117544 0 -0 0
-93.6671437025 126.6671117544 0 -0 0
-91.8893676996 126.6671117544 0 -0 0
-90.1115916967 126.6671117544 0 -0 0
-88.3338156939 126.6671117544 0 -0 0
-86.556039691 126.6671117544 0 -0 0
-84.7782636881 126.6671117544 0 -0 0
-83.0004876852 126.6671117544 0 -0 0
-81.2227116823 126.6671117544 0 -0 0
-79.4449356794 126.6671117544 0 -0 0
-77.6671596766 126.6671117544 0 -0 0
-75.8893836737 126.6671117544 0 -0 0
-74.1116076708 126.6671117544 0 -0 0
-72.3338316679 126.6671117544 0 -0 0
-70.556055665 126.6671117544 0 -0 0
-68.7782796621 126.6671117544 0 -0 0
-67.0005036592 126.6671117544 0 -0 0
-65.2227276564 126.6671117544 0 -0 0
-63.4449516535 126.6671117544 0 -0 0
-61.6671756506 126.6671117544 0 -0 0
-59.8893996477 126.6671117544 0 -0 0
-58.1116236448 126.6671117544 0 -0 0
-56.3338476419 126.6671117544 0 -0 0
-54.5560716391 126.6671117544 0 -0 0
-52.7782956362 126.6671117544 0 -0 0
-51.0005196333 126.6671117544 0 -0 0
-49.2227436304 126.6671117544 0 -0 0
-47.4449676275 126.6671117544 0 -0 0
-45.6671916246 126.6671117544 0 -0 0
-43.8894156218 126.6671117544 0 -0 0
-42.1116396189 126.6671117544 0 -0 0
-40.333863616 126.6671117544 0 -0 0
-38.5560876131 126.6671117544 0 -0 0
-36.7783116102 126.6671117544 0 -0 0
-35.0005356073 126.6671117544 0 -0 0
-33.2227596045 126.6671117544 0 -0 0
-31.4449836016 126.6671117544 0 -0 0
-29.6672075987 126.6671117544 0 -0 0
-27.8894315958 126.6671117544 0 -0 0
-26.1116555929 126.6671117544 0 -0 0
-24.33387959 126.6671117544 0 -0 0
-22.5561035872 126.6671117544 0 -0 0
-20.7783275843 126.6671117544 0 -0 0
-19.0005515814 126.6671117544 0 -0 0
-17.2227755785 126.6671117544 0 -0 0
-15.4449995756 126.6671117544 0 -0 0
-13.6672235727 126.6671117544 0 -0 0
-11.8894475698 126.6671117544 0 -0 0
-10.111671567 126.6671117544 0 -0 0
-8.3338955641 126.6671117544 0 -0 0
-6.5561195612 126.6671117544 0 -0 0
-4.7783435583 126.6671117544 0 -0 0
-3.0005675554 126.6671117544 0 -0 0
-1.2227915525 126.6671117544 0 -0 0
0.5549844503 126.6671117544 0 -0 0
2.3327604532 126.6671117544 0 -0 0
4.1105364561 126.6671117544 0 -0 0
5.888312459 126.6671117544 0 -0 0
7.6660884619 126.6671117544 0 -0 0
9.4438644648 126.6671117544 0 -0 0
11.2216404676 126.6671117544 0 -0 0
12.9994164705 126.6671117544 0 -0 0
14.7771924734 126.6671117544 0 -0 0
16.5549684763 126.6671117544 0 -0 0
18.3327444792 126.6671117544 0 -0 0
20.1105204821 126.6671117544 0 -0 0
21.8882964849 126.6671117544 0 -0 0
23.6660724878 126.6671117544 0 -0 0
25.4438484907 126.6671117544 0 -0 0
27.2216244936 126.6671117544 0 -0 0
28.9994004965 126.6671117544 0 -0 0
30.7771764994 126.6671117544 0 -0 0
32.5549525023 126.6671117544 0 -0 0
34.3327285051 126.6671117544 0 -0 0
36.110504508 126.6671117544 0 -0 0
37.8882805109 126.6671117544 0 -0 0
39.6660565138 126.6671117544 0 -0 0
41.4438325167 126.6671117544 0 -0 0
43.2216085196 126.6671117544 0 -0 0
44.9993845224 126.6671117544 0 -0 0
46.7771605253 126.6671117544 0 -0 0
48.5549365282 126.6671117544 0 -0 0
50.3327125311 126.6671117544 0 -0 0
52.110488534 126.6671117544 0 -0 0
53.8882645369 126.6671117544 0 -0 0
-125.6671117544 124.8893357515 0 -0 0
-123.8893357515 124.8893357515 -9.7748713757 0.4438304217 1
-122.1115597486 124.8893357515 -9.3683702499 0.2298281223 1
-120.3337837458 124.8893357515 -9.8563689224 -0.1241321878 1
-118.5560077429 124.8893357515 -10.6661736475 0.2038126001 1
-116.77823174 124.8893357515 -10.4106163914 0.1662556255 1
-115.0004557371 124.8893357515 -10.129614958 -0.1759484408 1
-113.2226797342 124.8893357515 -10.6149917448 -0.2710408449 1
-111.4449037313 124.8893357515 -10.0227677421 -0.2326633675 1
-109.6671277285 124.8893357515 -10.3103518129 -0.6487799838 1
-107.8893517256 124.8893357515 -10.0695621746 -0.5338838219 1
-106.1115757227 124.8893357515 -9.8202295703 0.2737286 1
-104.3337997198 124.8893357515 -9.7923525236 0.1304728269 1
-102.5560237169 124.8893357515 -9.8902644214 0.4161395274 1
-100.778247714 124.8893357515 -10.0094478176 0.1270032315 1
-99.0004717112 124.8893357515 -9.8548524959 0.5538135906 1
-97.2226957083 124.8893357515 -10.0535115367 0.3463423787 1
-95.4449197054 124.8893357515 -9.663377508 0.5131493018 1
-93.6671437025 124.8893357515 -9.8214753599 0.3939730653 1
-91.8893676996 124.8893357515 -9.9308814561 -0.3016228301 1
-90.1115916967 124.8893357515 -10.0969466333 -0.6562017391 1
-88.3338156939 124.8893357515 -9.7859216721 0.133432651 1
-86.556039691 124.8893357515 -10.2935078792 -0.3893278454 1
-84.7782636881 124.8893357515 -9.7331030596 -0.7321390551 1
-83.0004876852 124.8893357515 -10.1010319638 -0.2629346213 1
-81.2227116823 124.8893357515 -10.0826343731 0.3611687061 1
-79.4449356794 124.8893357515 -9.2646933535 -0.2227586247 1
-77.6671596766 124.8893357515 -10.7106562097 -0.1683262136 1
-75.8893836737 124.8893357515 -10.876766493 0.3071443985 1
-74.1116076708 124.8893357515 -10.0586679599 -0.0589373006 1
-72.3338316679 124.8893357515 0 -0 0
-70.556055665 124.8893357515 0 -0 0
-68.7782796621 124.8893357515 0 -0 0
-67.0005036592 124.8893357515 0 -0 0
-65.2227276564 124.8893357515 0 -0 0
-63.4449516535 124.8893357515 0 -0 0
-61.6671756506 124.8893357515 0 -0 0
-59.8893996477 124.8893357515 -9.4176734447 0.0797104832 1
-58.1116236448 124.8893357515 -10.7182447863 -0.0625128598 1
-56.3338476419 124.8893357515 -9.3685879051 0.4172793532 1
-54.5560716391 124.8893357515 -9.8722520231 0.1128556445 1
-52.7782956362 124.8893357515 -10.3686418757 0.3823299449 1
-51.0005196333 124.8893357515 -10.263640433 0.0162639972 1
-49.2227436304 124.8893357515 -10.1319919817 -0.3611157242 1
-47.4449676275 124.8893357515 -10.9174229061 -0.0403907879 1
-45.6671916246 124.8893357515 -10.7125549648 0.0140530787 1
-43.8894156218 124.8893357515 -10.7342044958 0.3613963849 1
-42.1116396189 124.8893357515 -10.4120855639 -0.6363550231 1
-40.333863616 124.8893357515 -9.988676067 0.2820037928 1
-38.5560876131 124.8893357515 -9.999439975 0.2657383637 1
-36.7783116102 124.8893357515 -10.3267876431 -0.0272283771 1
-35.0005356073 124.8893357515 -10.6613408433 -0.2426368435 1
-33.2227596045 124.8893357515 -10.1005723104 -0.536916675 1
-31.4449836016 124.8893357515 -9.6438100206 -0.6264774872 1
-29.6672075987 124.8893357515 -9.6475745961 -0.1609703275 1
-27.8894315958 124.8893357515 -9.4686133493 0.255930993 1
-26.1116555929 124.8893357515 0 -0 0
-24.33387959 124.8893357515 -10.118975629 0.5963265165 1
-22.5561035872 124.8893357515 -10.6011104991 0.324363501 1
-20.7783275843 124.8893357515 -10.5844928122 0.4729060039 1
-19.0005515814 124.8893357515 -10.7689935266 0.3635858242 1
-17.2227755785 124.8893357515 -10.9483048832 -0.2550933069 1
-15.4449995756 124.8893357515 -11.0978089352 0.0136392475 1
-13.6672235727 124.8893357515 -10.5055856485 0.2789952827 1
-11.8894475698 124.8893357515 -11.1105983252 0.6913573471 1
-10.111671567 124.8893357515 -10.1200882479 0.6864658332 1
-8.3338955641 124.8893357515 -10.0829723114 0.6586818627 1
-6.5561195612 124.8893357515 -10.4523603645 0.3774713657 1
-4.7783435583 124.8893357515 -10.8933125828 0.4852636633 1
-3.0005675554 124.8893357515 -10.5153937352 0.4956452428 1
-1.2227915525 124.8893357515 -10.4739397304 0.5508537665 1
0.5549844503 124.8893357515 -10.6097121746 0.1012798254 1
2.3327604532 124.8893357515 0 -0 0
4.1105364561 124.8893357515 -10.6818455367 0.1487930928 1
5.888312459 124.8893357515 -10.2908358754 0.307969197 1
7.6660884619 124.8893357515 -10.6536477349 0.1098170636 1
9.4438644648 124.8893357515 -10.2292852806 0.2991140677 1
11.2216404676 124.8893357515 0 -0 0
12.9994164705 124.8893357515 0 -0 0
14.7771924734 124.8893357515 0 -0 0
16.5549684763 124.8893357515 0 -0 0
18.3327444792 124.8893357515 0 -0 0
20.1105204821 124.8893357515 0 -0 0
21.8882964849 124.8893357515 0 -0 0
23.6660724878 124.8893357515 0 -0 0
25.4438484907 124.8893357515 0 -0 0
27.2216244936 124.8893357515 0 -0 0
28.9994004965 124.8893357515 0 -0 0
30.7771764994 124.8893357515 0 -0 0
32.5549525023 124.8893357515 0 -0 0
34.3327285051 124.8893357515 0 -0 0
36.110504508 124.8893357515 0 -0 0
37.8882805109 124.8893357515 -10.2490933343 0.4549279722 1
39.6660565138 124.8893357515 -9.894693418 0.133531455 1
41.4438325167 124.8893357515 -10.5884048777 0.3942064718 1
43.2216085196 124.8893357515 -11.1544887793 0.4138813548 1
44.9993845224 124.8893357515 -9.9878985225 -0.2101689906 1
46.7771605253 124.8893357515 -9.4621309479 0.0995758145 1
48.5549365282 124.8893357515 -9.4336052314 1.0467825338 1
50.3327125311 124.8893357515 -10.2115091527 0.7531900344 1
52.110488534 124.8893357515 -11.0412522382 0.2207567698 1
53.8882645369 124.8893357515 0 -0 0
-125.6671117544 123.1115597486 0 -0 0
-123.8893357515 123.1115597486 -10.059676047 -0.0408862398 1
-122.1115597486 123.1115597486 -9.7731287023 -0.1696078017 1
-120.3337837458 123.1115597486 -9.7813709604 0.0165518175 1
-118.5560077429 123.1115597486 -10.8259246765 -0.0710071397 1
-116.77823174 123.1115597486 -10.1779430004 -0.0835237447 1
-115.0004557371 123.1115597486 -10.019166408 0.276791524 1
-113.2226797342 123.1115597486 -10.368338304 0.3611758658 1
-111.4449037313 123.1115597486 -9.9259784867 -0.2709577923 1
-109.6671277285 123.1115597486 -9.958016757 -0.3605329238 1
-107.8893517256 123.1115597486 -10.4309528317 -0.4819859481 1
-106.1115757227 123.1115597486 -9.8171150965 0.2520017441 1
-104.3337997198 123.1115597486 -9.9705763202 -0.3897101739 1
-102.5560237169 123.1115597486 -10.0153760575 -0.1825081671 1
-100.778247714 123.1115597486 -9.8596495015 0.275678905 1
-99.0004717112 123.1115597486 -10.5757057001 0.5626372172 1
-97.2226957083 123.1115597486 -10.2509906574 -0.00049402 1
-95.4449197054 123.1115597486 -10.0905000304 0.0661056022 1
-93.6671437025 123.1115597486 -9.5086175129 0.1807912687 1
-91.8893676996 123.1115597486 -9.8121176189 -0.0445520113 1
-90.1115916967 123.1115597486 -10.1776021982 -0.3028643238 1
-88.3338156939 123.1115597486 -10.1240819341 0.3305466265 1
-86.556039691 123.1115597486 -10.5702485692 -0.3413649483 1
-84.7782636881 123.1115597486 -9.7570551534 -0.3895397728 1
-83.0004876852 123.1115597486 -10.3164805246 0.3443978014 1
-81.2227116823 123.1115597486 -10.1277749125 0.4074748463 1
-79.4449356794 123.1115597486 -10.4368624563 -0.2744073405 1
-77.6671596766 123.1115597486 -10.2637005746 -0.0212142207 1
-75.8893836737 123.1115597486 -10.1176926089 0.3826220611 1
-74.1116076708 123.1115597486 -10.3258540169 -0.3586499201 1
-72.3338316679 123.1115597486 0 -0 0
-70.556055665 123.1115597486 0 -0 0
-68.7782796621 123.1115597486 0 -0 0
-67.0005036592 123.1115597486 0 -0 0
-65.2227276564 123.1115597486 0 -0 0
-63.4449516535 123.1115597486 0 -0 0
-61.6671756506 123.1115597486 0 -0 0
-59.8893996477 123.1115597486 -9.7662152863 -0.3319055394 1
-58.1116236448 123.1115597486 -10.0599123175 0.7519213338 1
-56.3338476419 123.1115597486 -9.5577932649 0.3856620739 1
-54.5560716391 123.1115597486 -9.7771968495 -0.3572766877 1
-52.7782956362 123.1115597486 -10.3962711965 0.2348656943 1
-51.0005196333 123.1115597486 -10.5885895982 0.2253805105 1
-49.2227436304 123.1115597486 -10.5132422424 -0.0642154388 1
-47.4449676275 123.1115597486 -10.7192657609 -0.3101128142 1
-45.6671916246 123.1115597486 -10.2247746634 0.2304997031 1
-43.8894156218 123.1115597486 -10.8504481151 0.430739608 1
-42.1116396189 123.1115597486 -10.8867635961 -0.182460913 1
-40.333863616 123.1115597486 -10.3720327144 0.252966873 1
-38.5560876131 123.1115597486 -10.0978773956 -0.0755363722 1
-36.7783116102 123.1115597486 -10.1650283155 0.4069092293 1
-35.0005356073 123.1115597486 -10.5895182126 0.0973190739 1
-33.2227596045 123.1115597486 -10.4523202701 -0.1704010975 1
-31.4449836016 123.1115597486 -10.0110272497 -0.5301421574 1
-29.6672075987 123.1115597486 0 -0 0
-27.8894315958 123.1115597486 -8.8577010716 -0.0057406555 1
-26.1116555929 123.1115597486 -10.1401698025 0.4711948332 1
-24.33387959 123.1115597486 -9.8668149393 -0.4030329623 1
-22.5561035872 123.1115597486 -10.1506358665 -0.258522808 1
-20.7783275843 123.1115597486 -10.1489347194 -0.1946753783 1
-19.0005515814 123.1115597486 -10.9204650669 0.3450908613 1
-17.2227755785 123.1115597486 -11.6918235814 0.3883770359 1
-15.4449995756 123.1115597486 -10.8793554441 0.0420504087 1
-13.6672235727 123.1115597486 -10.7924931267 0.4917517925 1
-11.8894475698 123.1115597486 -11.0711161045 -0.4254213754 1
-10.111671567 123.1115597486 -10.650881939 -0.0183274256 1
-8.3338955641 123.1115597486 -10.2588835217 0.3574413611 1
-6.5561195612 123.1115597486 -9.899161077 0.7324698337 1
-4.7783435583 123.1115597486 0 -0 0
-3.0005675554 123.1115597486 -11.000129012 1.1179156844 1
-1.2227915525 123.1115597486 -10.5155891953 0.5711014263 1
0.5549844503 123.1115597486 -10.3916875502 -0.1942944817 1
2.3327604532 123.1115597486 -10.7599493809 0.6664515799 1
4.1105364561 123.1115597486 -10.1079668589 0.3842644985 1
5.888312459 123.1115597486 -10.3230459787 0.2905610782 1
7.6660884619 123.1115597486 -10.4938924102 0.0103944669 1
9.4438644648 123.1115597486 -9.7745835553 0.2988076321 1
11.2216404676 123.1115597486 0 -0 0
12.9994164705 123.1115597486 0 -0 0
14.7771924734 123.1115597486 0 -0 0
16.5549684763 123.1115597486 0 -0 0
18.3327444792 123.1115597486 0 -0 0
20.1105204821 123.1115597486 0 -0 0
21.8882964849 123.1115597486 0 -0 0
23.6660724878 123.1115597486 0 -0 0
25.4438484907 123.1115597486 0 -0 0
27.2216244936 123.1115597486 0 -0 0
28.9994004965 123.1115597486 0 -0 0
30.7771764994 123.1115597486 0 -0 0
32.5549525023 123.1115597486 0 -0 0
34.3327285051 123.1115597486 0 -0 0
36.110504508 123.1115597486 0 -0 0
37.8882805109 123.1115597486 -10.1896219193 1.0528124416 1
39.6660565138 123.1115597486 -10.2090390528 0.984368478 1
41.4438325167 123.1115597486 -10.911872699 0.845800883 1
43.2216085196 123.1115597486 -10.7948486713 0.6812005825 1
44.9993845224 123.1115597486 -9.7453547553 0.3945300907 1
46.7771605253 123.1115597486 -9.854775171 0.5408459239 1
48.5549365282 123.1115597486 -9.9584449076 0.1733050759 1
50.3327125311 123.1115597486 -10.0726222346 0.4289239055 1
52.110488534 123.1115597486 -11.2499892868 0.4776800985 1
53.8882645369 123.1115597486 0 -0 0
-125.6671117544 121.3337837458 0 -0 0
-123.8893357515 121.3337837458 -9.9834279996 0.0668731232 1
-122.1115597486 121.3337837458 -9.6981479235 0.1410978365 1
-120.3337837458 121.3337837458 -9.8359723406 0.1323916292 1
-118.5560077429 121.3337837458 -10.2564950425 0.2611919479 1
-116.77823174 121.3337837458 -9.9676007447 -0.1213714036 1
-115.0004557371 121.3337837458 -10.1942886183 -0.1526063543 1
-113.2226797342 121.3337837458 -10.0178404297 0.0253511011 1
-111.4449037313 121.3337837458 -10.113419694 -0.3264885029 1
-109.6671277285 121.3337837458 -9.9746258522 0.0906634075 1
-107.8893517256 121.3337837458 -10.2574802186 -0.3101500447 1
-106.1115757227 121.3337837458 -9.8910476937 -0.244154702 1
-104.3337997198 121.3337837458 -10.2907141603 -0.3669165213 1
-102.5560237169 121.3337837458 -10.2669868815 -0.5280386347 1
-100.778247714 121.3337837458 -9.9150427457 0.0790360385 1
-99.0004717112 121.3337837458 -10.2148026193 0.4709972252 1
-97.2226957083 121.3337837458 -9.883731902 0.4268662049 1
-95.4449197054 121.3337837458 -10.4946914338 -0.1452876988 1
-93.6671437025 121.3337837458 -9.4722547778 0.336434772 1
-91.8893676996 121.3337837458 -9.600154405 0.1391690107 1
-90.1115916967 121.3337837458 -9.6974276567 -0.4843930426 1
-88.3338156939 121.3337837458 -10.0010365904 -0.4018931364 1
-86.556039691 121.3337837458 -10.1731044684 -0.0494320696 1
-84.7782636881 121.3337837458 -9.9987469151 -0.2824405351 1
-83.0004876852 121.3337837458 -10.0636468222 -0.1909007792 1
-81.2227116823 121.3337837458 -9.8071673954 0.3940575498 1
-79.4449356794 121.3337837458 -9.762519444 -0.0288922937 1
-77.6671596766 121.3337837458 -10.0733868916 -0.2979498989 1
-75.8893836737 121.3337837458 -9.5804566109 -0.1245087885 1
-74.1116076708 121.3337837458 -9.9372808049 -0.599819023 1
-72.3338316679 121.3337837458 0 -0 0
-70.556055665 121.3337837458 0 -0 0
-68.7782796621 121.3337837458 0 -0 0
-67.0005036592 121.3337837458 0 -0 0
-65.2227276564 121.3337837458 0 -0 0
-63.4449516535 121.3337837458 0 -0 0
-61.6671756506 121.3337837458 0 -0 0
-59.8893996477 121.3337837458 -10.2583522712 0.763123416 1
-58.1116236448 121.3337837458 -10.1095104924 0.5852490132 1
-56.3338476419 121.3337837458 -9.9820819742 0.3681852219 1
-54.5560716391 121.3337837458 -10.3116419926 -0.0482936758 1
-52.7782956362 121.3337837458 -10.3720069394 -0.605349183 1
-51.0005196333 121.3337837458 -10.9533381593 0.0811782237 1
-49.2227436304 121.3337837458 -10.8024887978 0.0120512238 1
-47.4449676275 121.3337837458 -10.1770423089 -0.3218046206 1
-45.6671916246 121.3337837458 -10.2840699495 0.0216294839 1
-43.8894156218 121.3337837458 -10.6985677553 0.0585005583 1
-42.1116396189 121.3337837458 -10.5134362705 -0.4246352392 1
-40.333863616 121.3337837458 -10.5120873811 -0.5322700233 1
-38.5560876131 121.3337837458 -10.5479031143 -0.6639041551 1
-36.7783116102 121.3337837458 -10.2176593436 0.4886473423 1
-35.0005356073 121.3337837458 -10.1936327888 0.5352398709 1
-33.2227596045 121.3337837458 -10.7276433376 -0.1987220463 1
-31.4449836016 121.3337837458 -11.2616775134 -0.6552022436 1
-29.6672075987 121.3337837458 -9.2241164132 0.6991041533 1
-27.8894315958 121.3337837458 -9.4280507284 0.2008413205 1
-26.1116555929 121.3337837458 -9.5199756768 -0.4059469642 1
-24.33387959 121.3337837458 -10.0087619174 -0.4965745732 1
-22.5561035872 121.3337837458 -10.0159674495 -0.0281161811 1
-20.7783275843 121.3337837458 -10.137022394 -0.1380277529 1
-19.0005515814 121.3337837458 -10.8545377414 1.006069559 1
-17.2227755785 121.3337837458 -10.3703301353 -0.1526965667 1
-15.4449995756 121.3337837458 -10.5447786169 0.1871175884 1
-13.6672235727 121.3337837458 -10.649178644 0.3376920171 1
-11.8894475698 121.3337837458 -10.3770301919 -0.7706611587 1
-10.111671567 121.3337837458 -10.5511414512 -0.3871040395 1
-8.3338955641 121.3337837458 -10.7432457776 -0.1963779573 1
-6.5561195612 121.3337837458 -10.1198863441 0.6156405501 1
-4.7783435583 121.3337837458 -11.2134332396 0.8876021338 1
-3.0005675554 121.3337837458 -10.3123436442 0.7518869672 1
-1.2227915525 121.3337837458 -10.0840462679 0.3437734747 1
0.5549844503 121.3337837458 -10.1441033471 0.3321647209 1
2.3327604532 121.3337837458 -10.186543244 0.2604244269 1
4.1105364561 121.3337837458 -10.6100365095 0.151108543 1
5.888312459 121.3337837458 -10.2300785765 0.5721725189 1
7.6660884619 121.3337837458 -10.1226814949 0.424788457 1
9.4438644648 121.3337837458 0 -0 0
11.2216404676 121.3337837458 -9.4408766328 0.2778110667 1
12.9994164705 121.3337837458 -0.1747212665 1.4864316849 1
14.7771924734 121.3337837458 0 -0 0
16.5549684763 121.3337837458 0 -0 0
18.3327444792 121.3337837458 0 -0 0
20.1105204821 121.3337837458 0 -0 0
21.8882964849 121.3337837458 0 -0 0
23.6660724878 121.3337837458 0 -0 0
25.4438484907 121.3337837458 0 -0 0
27.2216244936 121.3337837458 0 -0 0
28.9994004965 121.3337837458 0 -0 0
30.7771764994 121.3337837458 0 -0 0
32.5549525023 121.3337837458 0 -0 0
34.3327285051 121.3337837458 0 -0 0
36.110504508 121.3337837458 0 -0 0
37.8882805109 121.3337837458 -9.3626224347 0.9445118045 1
39.6660565138 121.3337837458 -10.2504006973 0.4251793772 1
41.4438325167 121.3337837458 -10.4644817535 0.7112613408 1
43.2216085196 121.3337837458 -10.2511596266 0.6425839707 1
44.9993845224 121.3337837458 -9.6827230443 0.7828383934 1
46.7771605253 121.3337837458 -9.8590294707 1.0431525608 1
48.5549365282 121.3337837458 -10.3477756169 -0.1984900717 1
50.3327125311 121.3337837458 -9.5347304071 0.6009359378 1
52.110488534 121.3337837458 -9.6634032829 0.9965628961 1
53.8882645369 121.3337837458 0 -0 0
-125.6671117544 119.5560077429 0 -0 0
-123.8893357515 119.5560077429 -9.8742409905 0.1546239606 1
-122.1115597486 119.5560077429 -9.6191820502 -0.0791505938 1
-120.3337837458 119.5560077429 -9.5728415433 -0.114473739 1
-118.5560077429 119.5560077429 -10.0187926711 0.3535464788 1
-116.77823174 119.5560077429 -9.9267001855 -0.4081149244 1
-115.0004557371 119.5560077429 -10.2395981269 -0.0789472581 1
-113.2226797342 119.5560077429 -10.3006246309 0.4396333997 1
-111.4449037313 119.5560077429 -9.5984045718 0.5082377407 1
-109.6671277285 119.5560077429 -9.995910238 0.3382275634 1
-107.8893517256 119.5560077429 -9.889929347 -0.0437100294 1
-106.1115757227 119.5560077429 -10.3146719819 -0.3940460943 1
-104.3337997198 119.5560077429 -10.1281701285 -0.2425509269 1
-102.5560237169 119.5560077429 -10.2755470307 -0.1142202853 1
-100.778247714 119.5560077429 -10.3312782132 0.5738321397 1
-99.0004717112 119.5560077429 -9.9904373557 0.6821542559 1
-97.2226957083 119.5560077429 -9.685718667 0.3483714405 1
-95.4449197054 119.5560077429 -10.1233645312 0.2031467471 1
-93.6671437025 119.5560077429 -9.833223012 -0.4875103803 1
-91.8893676996 119.5560077429 -9.9038206163 -0.4060629515 1
-90.1115916967 119.5560077429 -9.9735647832 -0.4151242805 1
-88.3338156939 119.5560077429 -9.7276158579 0.2273308155 1
-86.556039691 119.5560077429 -10.2066563013 0.1427502976 1
-84.7782636881 119.5560077429 -10.6432976582 0.6939606176 1
-83.0004876852 119.5560077429 -9.8112169274 0.0097243181 1
-81.2227116823 119.5560077429 -10.1221230375 -0.3532285877 1
-79.4449356794 119.5560077429 -10.0585261976 -0.4022955121 1
-77.6671596766 119.5560077429 -10.0583787076 -0.5357539381 1
-75.8893836737 119.5560077429 -9.4672114781 -0.6326119267 1
-74.1116076708 119.5560077429 0 -0 0
-72.3338316679 119.5560077429 0 -0 0
-70.556055665 119.5560077429 0 -0 0
-68.7782796621 119.5560077429 0 -0 0
-67.0005036592 119.5560077429 0 -0 0
-65.2227276564 119.5560077429 0 -0 0
-63.4449516535 119.5560077429 0 -0 0
-61.6671756506 119.5560077429 0 -0 0
-59.8893996477 119.5560077429 -10.7097290272 0.9774364468 1
-58.1116236448 119.5560077429 -10.4843055585 0.4966647855 1
-56.3338476419 119.5560077429 -10.9684272481 -0.2696647486 1
-54.5560716391 119.5560077429 -10.2180216249 0.029131428 1
-52.7782956362 119.5560077429 -10.1013856535 -0.5143592928 1
-51.0005196333 119.5560077429 -10.925547745 -0.0803190585 1
-49.2227436304 119.5560077429 -10.2022845824 -0.2385128505 1
-47.4449676275 119.5560077429 -10.5358218197 0.0552930082 1
-45.6671916246 119.5560077429 -10.6947559258 0.0237129595 1
-43.8894156218 119.5560077429 -10.7111781525 -0.4000974812 1
-42.1116396189 119.5560077429 -10.57245018 -0.3463008523 1
-40.333863616 119.5560077429 -10.0501149703 -0.502849343 1
-38.5560876131 119.5560077429 -10.3280935742 -0.8690584849 1
-36.7783116102 119.5560077429 -10.3222541147 0.2612205867 1
-35.0005356073 119.5560077429 -9.9664294162 0.5818066247 1
-33.2227596045 119.5560077429 0 -0 0
-31.4449836016 119.5560077429 0 -0 0
-29.6672075987 119.5560077429 0 -0 0
-27.8894315958 119.5560077429 -9.7133837864 -0.0679284644 1
-26.1116555929 119.5560077429 -9.4086479143 0.1382210651 1
-24.33387959 119.5560077429 -10.3716274748 -0.1692727272 1
-22.5561035872 119.5560077429 -10.5834331751 0.5473712835 1
-20.7783275843 119.5560077429 -10.2222916759 -0.5940397051 1
-19.0005515814 119.5560077429 -10.1744003759 0.4880473586 1
-17.2227755785 119.5560077429 -10.4582456461 0.016613391 1
-15.4449995756 119.5560077429 -10.1253019487 0.3913769544 1
-13.6672235727 119.5560077429 -10.510313921 0.3467590738 1
-11.8894475698 119.5560077429 -10.1744590855 -0.4603521684 1
-10.111671567 119.5560077429 -10.1136903311 -0.5359443864 1
-8.3338955641 119.5560077429 -10.6780816772 0.0451419714 1
-6.5561195612 119.5560077429 -10.5193458951 0.2493784264 1
-4.7783435583 119.5560077429 -10.9446283721 0.1513476773 1
-3.0005675554 119.5560077429 -10.73069409 -0.0050561872 1
-1.2227915525 119.5560077429 -10.4261357788 0.4318364755 1
0.5549844503 119.5560077429 0 -0 0
2.3327604532 119.5560077429 -10.1129385615 0.0539741897 1
4.1105364561 119.5560077429 -10.9978393367 0.2567744068 1
5.888312459 119.5560077429 -10.3924035212 0.6232842565 1
7.6660884619 119.5560077429 -10.0665865991 0.8173295803 1
9.4438644648 119.5560077429 -9.7335183228 -0.0486387738 1
11.2216404676 119.5560077429 -9.4878844247 -0.4798609462 1
12.9994164705 119.5560077429 0 -0 0
14.7771924734 119.5560077429 0 -0 0
16.5549684763 119.5560077429 0 -0 0
18.3327444792 119.5560077429 0 -0 0
20.1105204821 119.5560077429 0 -0 0
21.8882964849 119.5560077429 0 -0 0
23.6660724878 119.5560077429 0 -0 0
25.4438484907 119.5560077429 0 -0 0
27.2216244936 119.5560077429 0 -0 0
28.9994004965 119.5560077429 0 -0 0
30.7771764994 119.5560077429 0 -0 0
32.5549525023 119.5560077429 0 -0 0
34.3327285051 119.5560077429 0 -0 0
36.110504508 119.5560077429 0 -0 0
37.8882805109 119.5560077429 -10.13168841 0.8356197754 1
39.6660565138 119.5560077429 0 -0 0
41.4438325167 119.5560077429 0 -0 0
43.2216085196 119.5560077429 -9.6741356882 -0.1362621684 1
44.9993845224 119.5560077429 -9.9245007226 0.2433757255 1
46.7771605253 119.5560077429 -10.2947150063 0.3669838225 1
48.5549365282 119.5560077429 -10.6809305258 0.0023569765 1
50.3327125311 119.5560077429 -9.7262469213 1.0479495665 1
52.110488534 119.5560077429 -10.5108609228 1.6482740651 1
53.8882645369 119.5560077429 0 -0 0
-125.6671117544 117.77823174 0 -0 0
-123.8893357515 117.77823174 -9.7451199168 0.3590537278 1
-122.1115597486 117.77823174 -10.0708208516 -0.1074300163 1
-120.3337837458 117.77823174 -9.8935106339 -0.1065293248 1
-118.5560077429 117.77823174 -10.1503609336 -0.1076691506 1
-116.77823174 117.77823174 -10.0648339021 -0.4169213677 1
-115.0004557371 117.77823174 -9.6804462566 -0.2646772947 1
-113.2226797342 117.77823174 -9.8393774987 0.2692953076 1
-111.4449037313 117.77823174 -9.3855664413 0.2823331395 1
-109.6671277285 117.77823174 -9.8243907938 0.15972597 1
-107.8893517256 117.77823174 -10.2398573084 0.0548176035 1
-106.1115757227 117.77823174 -10.8113245959 -0.2442506421 1
-104.3337997198 117.77823174 -10.3194245974 0.118719447 1
-102.5560237169 117.77823174 -10.4722428791 -0.0199942061 1
-100.778247714 117.77823174 -10.6909018539 0.7421755366 1
-99.0004717112 117.77823174 -9.5569355316 0.7414624295 1
-97.2226957083 117.77823174 -9.7360213574 0.3446440954 1
-95.4449197054 117.77823174 -9.9118151485 -0.4494908884 1
-93.6671437025 117.77823174 -9.7947281153 -0.2129899164 1
-91.8893676996 117.77823174 -9.7556833529 -0.3876610649 1
-90.1115916967 117.77823174 -9.7643752408 0.4284384772 1
-88.3338156939 117.77823174 -9.8235316286 -0.224578623 1
-86.556039691 117.77823174 -9.986529586 0.1419842086 1
-84.7782636881 117.77823174 -10.2617975237 0.4916229177 1
-83.0004876852 117.77823174 -10.1775907426 0.0250761682 1
-81.2227116823 117.77823174 -10.6646400377 -0.0120655433 1
-79.4449356794 117.77823174 -10.5915751973 -0.3203698147 1
-77.6671596766 117.77823174 -10.3542236517 -0.2112271958 1
-75.8893836737 117.77823174 -10.8129656014 -0.4046711039 1
-74.1116076708 117.77823174 -11.0084600505 -0.2387348015 1
-72.3338316679 117.77823174 0 -0 0
-70.556055665 117.77823174 0 -0 0
-68.7782796621 117.77823174 0 -0 0
-67.0005036592 117.77823174 0 -0 0
-65.2227276564 117.77823174 0 -0 0
-63.4449516535 117.77823174 0 -0 0
-61.6671756506 117.77823174 0 -0 0
-59.8893996477 117.77823174 -10.9736044344 0.707430896 1
-58.1116236448 117.77823174 -10.5420049453 0.2861678802 1
-56.3338476419 117.77823174 -11.1986555982 0.2840643574 1
-54.5560716391 117.77823174 -10.108681398 -0.1071522196 1
-52.7782956362 117.77823174 -10.4308855304 -0.3366782021 1
-51.0005196333 117.77823174 -10.2997797851 -0.6584455922 1
-49.2227436304 117.77823174 -9.9617283506 -0.4009996046 1
-47.4449676275 117.77823174 -10.5310069148 0.3041802785 1
-45.6671916246 117.77823174 -10.6480495577 0.1290022225 1
-43.8894156218 117.77823174 -10.6653209261 -0.2687382822 1
-42.1116396189 117.77823174 -10.1483333038 -0.0896266815 1
-40.333863616 117.77823174 -10.2134164994 0.4353361418 1
-38.5560876131 117.77823174 -10.6594642833 0.0540214437 1
-36.7783116102 117.77823174 -10.5918873607 0.1583770806 1
-35.0005356073 117.77823174 -9.2518459699 0.4140846906 1
-33.2227596045 117.77823174 -10.4460397725 -0.2153425971 1
-31.4449836016 117.77823174 0 -0 0
-29.6672075987 117.77823174 -8.9893079966 0.1493501183 1
-27.8894315958 117.77823174 -9.0420607397 -0.889843123 1
-26.1116555929 117.77823174 -9.7705125442 -0.2639212293 1
-24.33387959 117.77823174 -9.9115001212 0.0868372585 1
-22.5561035872 117.77823174 -11.1052779447 0.4351485574 1
-20.7783275843 117.77823174 -10.1195369502 0.3889798835 1
-19.0005515814 117.77823174 -10.3118768311 -0.0805624886 1
-17.2227755785 117.77823174 -10.6656044506 -0.0409936355 1
-15.4449995756 117.77823174 -10.7495713813 -0.3261706118 1
-13.6672235727 117.77823174 -10.7994122704 -0.16036748 1
-11.8894475698 117.77823174 -10.3107828274 0.2942025067 1
-10.111671567 117.77823174 -10.4095438669 -0.3284488315 1
-8.3338955641 117.77823174 -11.0431789161 0.0342592123 1
-6.5561195612 117.77823174 -10.2681467545 0.3349885106 1
-4.7783435583 117.77823174 -10.6504974625 0.4766104379 1
-3.0005675554 117.77823174 -10.697539621 -0.4059011421 1
-1.2227915525 117.77823174 -9.9176947023 -0.0437157572 1
0.5549844503 117.77823174 -10.008204892 0.8100639066 1
2.3327604532 117.77823174 -10.5922260149 0.3819633677 1
4.1105364561 117.77823174 -10.9484380538 0.43439106 1
5.888312459 117.77823174 -10.1282503173 0.6395038635 1
7.6660884619 117.77823174 -10.333752609 0.6137346353 1
9.4438644648 117.77823174 -9.5225245335 -0.05638558 1
11.2216404676 117.77823174 0 -0 0