TITLE = "B00004"
VARIABLES = "x", "y", "Vx", "Vy", "isValid"
ZONE T="Frame 0", I=102, J=78, F=POINT
-125.6671117544 126.6671117544 0 -0 0
-123.8893357515 126.6671117544 0 -0 0
-122.1115597486 126.6671117544 0 -0 0
-120.3337837458 126.6671117544 0 -0 0
-118.5560077429 126.6671117544 0 -0 0
-116.77823174 126.6671117544 0 -0 0
-115.0004557371 126.6671117544 0 -0 0
-113.2226797342 126.6671117544 0 -0 0
-111.4449037313 126.6671117544 0 -0 0
-109.6671277285 126.6671117544 0 -0 0
-107.8893517256 126.6671117544 0 -0 0
-106.1115757227 126.6671117544 0 -0 0
-104.3337997198 126.6671117544 0 -0 0
-102.5560237169 126.6671117544 0 -0 0
-100.778247714 126.6671117544 0 -0 0
-99.0004717112 126.6671117544 0 -0 0
-97.2226957083 126.6671117544 0 -0 0
-95.4449197054 126.6671117544 0 -0 0
-93.6671437025 126.6671117544 0 -0 0
-91.8893676996 126.6671117544 0 -0 0
-90.1115916967 126.6671117544 0 -0 0
-88.3338156939 126.6671117544 0 -0 0
-86.556039691 126.6671117544 0 -0 0
-84.7782636881 126.6671117544 0 -0 0
-83.0004876852 126.6671117544 0 -0 0
-81.2227116823 126.6671117544 0 -0 0
-79.4449356794 126.6671117544 0 -0 0
-77.6671596766 126.6671117544 0 -0 0
-75.8893836737 126.6671117544 0 -0 0
-74.1116076708 126.6671117544 0 -0 0
-72.3338316679 126.6671117544 0 -0 0
-70.556055665 126.6671117544 0 -0 0
-68.7782796621 126.6671117544 0 -0 0
-67.0005036592 126.6671117544 0 -0 0
-65.2227276564 126.6671117544 0 -0 0
-63.4449516535 126.6671117544 0 -0 0
-61.6671756506 126.6671117544 0 -0 0
-59.8893996477 126.6671117544 0 -0 0
-58.1116236448 126.6671117544 0 -0 0
-56.3338476419 126.6671117544 0 -0 0
-54.5560716391 126.6671117544 0 -0 0
-52.7782956362 126.6671117544 0 -0 0
-51.0005196333 126.6671117544 0 -0 0
-49.2227436304 126.6671117544 0 -0 0
-47.4449676275 126.6671117544 0 -0 0
-45.6671916246 126.6671117544 0 -0 0
-43.8894156218 126.6671117544 0 -0 0
-42.1116396189 126.6671117544 0 -0 0
-40.333863616 126.6671117544 0 -0 0
-38.5560876131 126.6671117544 0 -0 0
-36.7783116102 126.6671117544 0 -0 0
-35.0005356073 126.6671117544 0 -0 0
-33.2227596045 126.6671117544 0 -0 0
-31.4449836016 126.6671117544 0 -0 0
-29.6672075987 126.6671117544 0 -0 0
-27.8894315958 126.6671117544 0 -0 0
-26.1116555929 126.6671117544 0 -0 0
-24.33387959 126.6671117544 0 -0 0
-22.5561035872 126.6671117544 0 -0 0
-20.7783275843 126.6671117544 0 -0 0
-19.0005515814 126.6671117544 0 -0 0
-17.2227755785 126.6671117544 0 -0 0
-15.4449995756 126.6671117544 0 -0 0
-13.6672235727 126.6671117544 0 -0 0
-11.8894475698 126.6671117544 0 -0 0
-10.111671567 126.6671117544 0 -0 0
-8.3338955641 126.6671117544 0 -0 0
-6.5561195612 126.6671117544 0 -0 0
-4.7783435583 126.6671117544 0 -0 0
-3.0005675554 126.6671117544 0 -0 0
-1.2227915525 126.6671117544 0 -0 0
0.5549844503 126.6671117544 0 -0 0
2.3327604532 126.6671117544 0 -0 0
4.1105364561 126.6671117544 0 -0 0
5.888312459 126.6671117544 0 -0 0
7.6660884619 126.6671117544 0 -0 0
9.4438644648 126.6671117544 0 -0 0
11.2216404676 126.6671117544 0 -0 0
12.9994164705 126.6671117544 0 -0 0
14.7771924734 126.6671117544 0 -0 0
16.5549684763 126.6671117544 0 -0 0
18.3327444792 126.6671117544 0 -0 0
20.1105204821 126.6671117544 0 -0 0
21.8882964849 126.6671117544 0 -0 0
23.6660724878 126.6671117544 0 -0 0
25.4438484907 126.6671117544 0 -0 0
27.2216244936 126.6671117544 0 -0 0
28.9994004965 126.6671117544 0 -0 0
30.7771764994 126.6671117544 0 -0 0
32.5549525023 126.6671117544 0 -0 0
34.3327285051 126.6671117544 0 -0 0
36.110504508 126.6671117544 0 -0 0
37.8882805109 126.6671117544 0 -0 0
39.6660565138 126.6671117544 0 -0 0
41.4438325167 126.6671117544 0 -0 0
43.2216085196 126.6671117544 0 -0 0
44.9993845224 126.6671117544 0 -0 0
46.7771605253 126.6671117544 0 -0 0
48.5549365282 126.6671117544 0 -0 0
50.3327125311 126.6671117544 0 -0 0
52.110488534 126.6671117544 0 -0 0
53.8882645369 126.6671117544 0 -0 0
-125.6671117544 124.8893357515 0 -0 0
-123.8893357515 124.8893357515 -10.3195162416 0.146739688 1
-122.1115597486 124.8893357515 -10.616368557 0.3314902763 1
-120.3337837458 124.8893357515 -10.1437396339 -0.4271225225 1
-118.5560077429 124.8893357515 -10.071279073 -0.0434121855 1
-116.77823174 124.8893357515 -10.208045285 -0.0452865976 1
-115.0004557371 124.8893357515 -9.8971821332 -0.018242941 1
-113.2226797342 124.8893357515 -10.4654440185 -0.1122442053 1
-111.4449037313 124.8893357515 -10.0835909103 -0.0551727251 1
-109.6671277285 124.8893357515 -10.1336344192 0.3575859872 1
-107.8893517256 124.8893357515 -9.8723508271 0.4546043533 1
-106.1115757227 124.8893357515 -9.9005214219 0.5631068941 1
-104.3337997198 124.8893357515 -9.5742348229 0.4022353706 1
-102.5560237169 124.8893357515 -9.5503972845 0.3991667189 1
-100.778247714 124.8893357515 -10.5540260983 -0.5440205393 1
-99.0004717112 124.8893357515 -9.4370175492 -0.6718872318 1
-97.2226957083 124.8893357515 -9.2843682366 -0.4045937791 1
-95.4449197054 124.8893357515 -9.412113214 -0.0586294331 1
-93.6671437025 124.8893357515 -10.0287088694 0.1538922383 1
-91.8893676996 124.8893357515 -10.3120458003 -0.2618019551 1
-90.1115916967 124.8893357515 -9.9381772006 -0.3023072984 1
-88.3338156939 124.8893357515 -10.0309885211 -0.1408329273 1
-86.556039691 124.8893357515 -9.5618170219 -0.0432919024 1
-84.7782636881 124.8893357515 -10.2006206658 0.0847108246 1
-83.0004876852 124.8893357515 -10.8291651612 0.0526295961 1
-81.2227116823 124.8893357515 -10.0672424285 -0.5666838852 1
-79.4449356794 124.8893357515 -9.6236096149 -0.2840185352 1
-77.6671596766 124.8893357515 -9.9720855871 -0.3190109018 1
-75.8893836737 124.8893357515 -9.746053543 -0.0004567895 1
-74.1116076708 124.8893357515 0 -0 0
-72.3338316679 124.8893357515 0 -0 0
-70.556055665 124.8893357515 0 -0 0
-68.7782796621 124.8893357515 0 -0 0
-67.0005036592 124.8893357515 0 -0 0
-65.2227276564 124.8893357515 0 -0 0
-63.4449516535 124.8893357515 0 -0 0
-61.6671756506 124.8893357515 0 -0 0
-59.8893996477 124.8893357515 0 -0 0
-58.1116236448 124.8893357515 -9.5464379649 -0.1279554729 1
-56.3338476419 124.8893357515 -9.5561894898 -0.4480360353 1
-54.5560716391 124.8893357515 0 -0 0
-52.7782956362 124.8893357515 -10.607506268 0.1318331718 1
-51.0005196333 124.8893357515 -9.4979180423 0.0375412233 1
-49.2227436304 124.8893357515 -10.1489476069 -0.0527656306 1
-47.4449676275 124.8893357515 -10.3557887643 -0.0056862417 1
-45.6671916246 124.8893357515 -10.4072155292 0.4254944044 1
-43.8894156218 124.8893357515 -9.9615149913 0.1761933029 1
-42.1116396189 124.8893357515 -10.0277093739 -0.93657455 1
-40.333863616 124.8893357515 -10.3684013095 -0.2652758464 1
-38.5560876131 124.8893357515 -9.9627035031 -0.6651227378 1
-36.7783116102 124.8893357515 -9.6408186938 -0.7859328201 1
-35.0005356073 124.8893357515 -10.2007738836 0.3476569014 1
-33.2227596045 124.8893357515 -10.2385614009 -0.0759888659 1
-31.4449836016 124.8893357515 -9.9248902108 0.4684956226 1
-29.6672075987 124.8893357515 0 -0 0
-27.8894315958 124.8893357515 -9.8689871953 -1.3583487691 1
-26.1116555929 124.8893357515 -10.910316894 -0.1327367272 1
-24.33387959 124.8893357515 -10.2549872075 0.9139255235 1
-22.5561035872 124.8893357515 0 -0 0
-20.7783275843 124.8893357515 -10.5515996726 0.2242979623 1
-19.0005515814 124.8893357515 -10.7031277746 0.1774935062 1
-17.2227755785 124.8893357515 -9.9729590717 0.3248661126 1
-15.4449995756 124.8893357515 -10.5360215756 0.5787537243 1
-13.6672235727 124.8893357515 -9.3652099539 -0.2283603818 1
-11.8894475698 124.8893357515 -9.7656525331 0.262323182 1
-10.111671567 124.8893357515 -10.8289145714 -0.2999789607 1
-8.3338955641 124.8893357515 -10.3516418603 -0.2047376347 1
-6.5561195612 124.8893357515 -10.6357627794 0.4122818756 1
-4.7783435583 124.8893357515 -10.6139621785 -0.5024856297 1
-3.0005675554 124.8893357515 -9.9017099338 0.0486860279 1
-1.2227915525 124.8893357515 -10.4612083341 0.4913236419 1
0.5549844503 124.8893357515 -11.1026238402 -0.1918086304 1
2.3327604532 124.8893357515 -10.8247111056 0.366627269 1
4.1105364561 124.8893357515 -10.3383162081 0.6046403717 1
5.888312459 124.8893357515 -9.917554372 -0.6452273357 1
7.6660884619 124.8893357515 -10.9752941259 0.3302215757 1
9.4438644648 124.8893357515 -10.0184905313 -0.0203865582 1
11.2216404676 124.8893357515 0 -0 0
12.9994164705 124.8893357515 0 -0 0
14.7771924734 124.8893357515 0 -0 0
16.5549684763 124.8893357515 0 -0 0
18.3327444792 124.8893357515 0 -0 0
20.1105204821 124.8893357515 0 -0 0
21.8882964849 124.8893357515 0 -0 0
23.6660724878 124.8893357515 0 -0 0
25.4438484907 124.8893357515 0 -0 0
27.2216244936 124.8893357515 0 -0 0
28.9994004965 124.8893357515 0 -0 0
30.7771764994 124.8893357515 0 -0 0
32.5549525023 124.8893357515 0 -0 0
34.3327285051 124.8893357515 0 -0 0
36.110504508 124.8893357515 0 -0 0
37.8882805109 124.8893357515 -10.1561832098 0.0381741417 1
39.6660565138 124.8893357515 -10.9006720487 -0.3635929839 1
41.4438325167 124.8893357515 -9.5439592733 0.4334087478 1
43.2216085196 124.8893357515 -9.8285505853 1.1002297688 1
44.9993845224 124.8893357515 -9.9592668423 0.9943333624 1
46.7771605253 124.8893357515 -9.678040594 0.7575116354 1
48.5549365282 124.8893357515 -9.604497485 0.6386876566 1
50.3327125311 124.8893357515 -10.0337893996 0.6082417059 1
52.110488534 124.8893357515 -10.1827142311 0.3682081329 1
53.8882645369 124.8893357515 0 -0 0
-125.6671117544 123.1115597486 0 -0 0
-123.8893357515 123.1115597486 -10.4827060793 -0.1076519673 1
-122.1115597486 123.1115597486 -10.6939583341 -0.0163112513 1
-120.3337837458 123.1115597486 -10.012918845 0.1982265944 1
-118.5560077429 123.1115597486 -10.0359817028 0.0334358456 1
-116.77823174 123.1115597486 -10.2900726503 -0.0260341374 1
-115.0004557371 123.1115597486 -10.0320324068 0.0680344281 1
-113.2226797342 123.1115597486 -10.3197883106 0.1376654716 1
-111.4449037313 123.1115597486 -9.8488125645 -0.3181975587 1
-109.6671277285 123.1115597486 -9.8306712914 -0.0228924567 1
-107.8893517256 123.1115597486 -10.038940095 0.3335780477 1
-106.1115757227 123.1115597486 -9.8774156059 0.752113214 1
-104.3337997198 123.1115597486 -10.2089875029 0.2707616162 1
-102.5560237169 123.1115597486 -10.5329493441 0.5085355847 1
-100.778247714 123.1115597486 -10.017733034 -0.3331670803 1
-99.0004717112 123.1115597486 -9.2576825655 -0.6990096451 1
-97.2226957083 123.1115597486 -9.3674466473 0.109534971 1
-95.4449197054 123.1115597486 -9.2710626315 0.3058427632 1
-93.6671437025 123.1115597486 -9.6674857496 -0.326535757 1
-91.8893676996 123.1115597486 -10.3917061654 0.0781453706 1
-90.1115916967 123.1115597486 -10.0874485621 -0.0301481068 1
-88.3338156939 123.1115597486 -9.9449918126 -0.2658557829 1
-86.556039691 123.1115597486 -9.7178929717 0.2325072858 1
-84.7782636881 123.1115597486 -10.2847716011 -0.0032505083 1
-83.0004876852 123.1115597486 -10.3374069249 0.0771859694 1
-81.2227116823 123.1115597486 -10.4504429942 -0.2049853606 1
-79.4449356794 123.1115597486 -9.7339693845 -0.6382652337 1
-77.6671596766 123.1115597486 -9.8655075763 0.0436370004 1
-75.8893836737 123.1115597486 -9.7892466414 -0.0628393426 1
-74.1116076708 123.1115597486 -9.861490979 -0.7299295686 1
-72.3338316679 123.1115597486 0 -0 0
-70.556055665 123.1115597486 0 -0 0
-68.7782796621 123.1115597486 0 -0 0
-67.0005036592 123.1115597486 0 -0 0
-65.2227276564 123.1115597486 0 -0 0
-63.4449516535 123.1115597486 0 -0 0
-61.6671756506 123.1115597486 0 -0 0
-59.8893996477 123.1115597486 -9.9802748634 0.1643253676 1
-58.1116236448 123.1115597486 -9.6910297399 -0.577602443 1
-56.3338476419 123.1115597486 -9.8218075704 -0.2558780111 1
-54.5560716391 123.1115597486 -10.5540933996 -0.1496479622 1
-52.7782956362 123.1115597486 -10.0503584005 -0.1451373449 1
-51.0005196333 123.1115597486 -9.4454989416 -0.2123240634 1
-49.2227436304 123.1115597486 -9.8478545953 -0.345173914 1
-47.4449676275 123.1115597486 -10.4745082114 0.4052309932 1
-45.6671916246 123.1115597486 -10.6416151263 0.2882671071 1
-43.8894156218 123.1115597486 -9.5556167131 -0.2362575419 1
-42.1116396189 123.1115597486 -9.6293545661 -0.7244609821 1
-40.333863616 123.1115597486 -10.372089992 -0.3170892356 1
-38.5560876131 123.1115597486 -10.2995879049 0.1313792462 1
-36.7783116102 123.1115597486 -9.6541873042 -0.0973992626 1
-35.0005356073 123.1115597486 -10.4212771996 0.3497303534 1
-33.2227596045 123.1115597486 -9.9128031884 0.4843873148 1
-31.4449836016 123.1115597486 -9.6356966372 -0.5095751746 1
-29.6672075987 123.1115597486 0 -0 0
-27.8894315958 123.1115597486 -11.2125160808 0.1565041005 1
-26.1116555929 123.1115597486 -9.980011386 0.2816859017 1
-24.33387959 123.1115597486 0 -0 0
-22.5561035872 123.1115597486 -11.1932177985 0.469941884 1
-20.7783275843 123.1115597486 -9.9606787371 0.1225842585 1
-19.0005515814 123.1115597486 -10.4609677678 0.1611264092 1
-17.2227755785 123.1115597486 -9.8598471095 0.1464332524 1
-15.4449995756 123.1115597486 -10.3920827662 0.5203505381 1
-13.6672235727 123.1115597486 -9.8099654101 0.0844258681 1
-11.8894475698 123.1115597486 -10.1033144794 0.1975807886 1
-10.111671567 123.1115597486 -11.1636961663 -0.4689910745 1
-8.3338955641 123.1115597486 -11.3522428328 -0.361738619 1
-6.5561195612 123.1115597486 -10.5975127448 0.7744228703 1
-4.7783435583 123.1115597486 -10.8886888421 0.4852880064 1
-3.0005675554 123.1115597486 -10.4735745852 0.8593499182 1
-1.2227915525 123.1115597486 -10.0993766389 -0.0432460802 1
0.5549844503 123.1115597486 -10.9764704663 -0.2520890926 1
2.3327604532 123.1115597486 -10.2537886721 0.4994771196 1
4.1105364561 123.1115597486 -10.2565422965 -0.2272749697 1
5.888312459 123.1115597486 -10.5595684298 -0.5285040158 1
7.6660884619 123.1115597486 -10.1894944765 -0.4192067471 1
9.4438644648 123.1115597486 -10.3487063792 0.3514085894 1
11.2216404676 123.1115597486 -10.790213475 -0.3149212754 1
12.9994164705 123.1115597486 0 -0 0
14.7771924734 123.1115597486 0 -0 0
16.5549684763 123.1115597486 0 -0 0
18.3327444792 123.1115597486 0 -0 0
20.1105204821 123.1115597486 0 -0 0
21.8882964849 123.1115597486 0 -0 0
23.6660724878 123.1115597486 0 -0 0
25.4438484907 123.1115597486 0 -0 0
27.2216244936 123.1115597486 0 -0 0
28.9994004965 123.1115597486 0 -0 0
30.7771764994 123.1115597486 0 -0 0
32.5549525023 123.1115597486 0 -0 0
34.3327285051 123.1115597486 0 -0 0
36.110504508 123.1115597486 0 -0 0
37.8882805109 123.1115597486 -10.0874456982 0.4214205294 1
39.6660565138 123.1115597486 -10.657940697 -0.0760189367 1
41.4438325167 123.1115597486 -9.4455418999 0.3046542513 1
43.2216085196 123.1115597486 -10.3310433747 0.7773297126 1
44.9993845224 123.1115597486 -10.183556213 1.5046660342 1
46.7771605253 123.1115597486 -10.081623422 0.7263869441 1
48.5549365282 123.1115597486 -9.4871211996 -0.0386166118 1
50.3327125311 123.1115597486 0 -0 0
52.110488534 123.1115597486 -9.6820228247 0.4788385396 1
53.8882645369 123.1115597486 0 -0 0
-125.6671117544 121.3337837458 0 -0 0
-123.8893357515 121.3337837458 -10.0541143843 0.2276701857 1
-122.1115597486 121.3337837458 -10.1653275914 -0.3059687741 1
-120.3337837458 121.3337837458 -10.0561735169 0.1991931552 1
-118.5560077429 121.3337837458 -9.7708404589 -0.3941792649 1
-116.77823174 121.3337837458 -10.3232292672 -0.2254206049 1
-115.0004557371 121.3337837458 -10.0879411501 0.0198281008 1
-113.2226797342 121.3337837458 -10.039532919 -0.0000601416 1
-111.4449037313 121.3337837458 -9.6636567367 0.3014595887 1
-109.6671277285 121.3337837458 -9.6507105491 0.1293874149 1
-107.8893517256 121.3337837458 -9.8796150688 0.7252743252 1
-106.1115757227 121.3337837458 -10.1248351356 0.288418893 1
-104.3337997198 121.3337837458 -10.2656809504 0.11079508 1
-102.5560237169 121.3337837458 -10.6059898414 -0.1924673237 1
-100.778247714 121.3337837458 -9.8799000253 -0.2869998385 1
-99.0004717112 121.3337837458 -9.1781496432 -0.7312641386 1
-97.2226957083 121.3337837458 -9.5069335491 0.0058194123 1
-95.4449197054 121.3337837458 -9.7987962625 0.0359675191 1
-93.6671437025 121.3337837458 -9.9804538561 0.3943081397 1
-91.8893676996 121.3337837458 -10.3154710055 -0.0761907697 1
-90.1115916967 121.3337837458 -9.8052600487 -0.3267476844 1
-88.3338156939 121.3337837458 -9.7287112935 0.2657913455 1
-86.556039691 121.3337837458 -9.8562042491 0.3772766216 1
-84.7782636881 121.3337837458 -10.8167194374 -0.1073584192 1
-83.0004876852 121.3337837458 -10.1194023477 -0.371835242 1
-81.2227116823 121.3337837458 -10.361598153 -0.1048825915 1
-79.4449356794 121.3337837458 -10.0726480096 -0.6439385879 1
-77.6671596766 121.3337837458 -9.7273767235 0.1212024344 1
-75.8893836737 121.3337837458 -9.762049767 0.0527097849 1
-74.1116076708 121.3337837458 -9.8597067792 -0.5424296517 1
-72.3338316679 121.3337837458 0 -0 0
-70.556055665 121.3337837458 0 -0 0
-68.7782796621 121.3337837458 0 -0 0
-67.0005036592 121.3337837458 0 -0 0
-65.2227276564 121.3337837458 0 -0 0
-63.4449516535 121.3337837458 0 -0 0
-61.6671756506 121.3337837458 0 -0 0
-59.8893996477 121.3337837458 -9.6717844394 0.3263481726 1
-58.1116236448 121.3337837458 -9.4289328047 -0.2845082594 1
-56.3338476419 121.3337837458 -9.7184084708 -0.2954124977 1
-54.5560716391 121.3337837458 -10.1623835186 -0.5014030816 1
-52.7782956362 121.3337837458 -9.6447966286 -0.4987167584 1
-51.0005196333 121.3337837458 -9.662859145 -0.5402573957 1
-49.2227436304 121.3337837458 -9.7662210141 -0.0742318731 1
-47.4449676275 121.3337837458 -9.9674117284 0.2619408535 1
-45.6671916246 121.3337837458 -10.1149733511 0.4526783913 1
-43.8894156218 121.3337837458 -9.5664493543 0.3968211979 1
-42.1116396189 121.3337837458 -9.9036029611 0.0967835276 1
-40.333863616 121.3337837458 -10.7619032658 0.2511941288 1
-38.5560876131 121.3337837458 -10.7483563785 0.4382845103 1
-36.7783116102 121.3337837458 -10.6105477128 0.0049717026 1
-35.0005356073 121.3337837458 -10.9304041763 0.5171200769 1
-33.2227596045 121.3337837458 -10.190072981 0.7668321458 1
-31.4449836016 121.3337837458 0 -0 0
-29.6672075987 121.3337837458 0 -0 0
-27.8894315958 121.3337837458 -9.8244251604 0.4003294558 1
-26.1116555929 121.3337837458 -10.8134975679 1.3660640726 1
-24.33387959 121.3337837458 -9.6640963428 0.0031445446 1
-22.5561035872 121.3337837458 -10.9689549187 -0.4885485383 1
-20.7783275843 121.3337837458 -10.3423013027 -0.3666186773 1
-19.0005515814 121.3337837458 -10.7272495535 0.2497736424 1
-17.2227755785 121.3337837458 -10.691120225 -0.1546425759 1
-15.4449995756 121.3337837458 -10.5112618666 0.3808077906 1
-13.6672235727 121.3337837458 -10.2138847445 0.4588386057 1
-11.8894475698 121.3337837458 -10.6704737694 0.4825200625 1
-10.111671567 121.3337837458 -10.2144217227 0.2716222134 1
-8.3338955641 121.3337837458 -11.1042147277 0.1669186146 1
-6.5561195612 121.3337837458 -10.116358039 0.4514311698 1
-4.7783435583 121.3337837458 -9.8730037926 0.5863931349 1
-3.0005675554 121.3337837458 -9.7650282064 0.4014220275 1
-1.2227915525 121.3337837458 -9.8869279966 0.4889136835 1
0.5549844503 121.3337837458 -10.9012283581 0.1816833685 1
2.3327604532 121.3337837458 -10.4260183595 0.2049853606 1
4.1105364561 121.3337837458 -10.2320460648 -0.2505869854 1
5.888312459 121.3337837458 -10.8115393872 -0.1534669515 1
7.6660884619 121.3337837458 -10.963936678 -0.2124658256 1
9.4438644648 121.3337837458 -10.4868758944 0.9711487895 1
11.2216404676 121.3337837458 -10.7423415062 -0.1617206652 1
12.9994164705 121.3337837458 0 -0 0
14.7771924734 121.3337837458 0 -0 0
16.5549684763 121.3337837458 0 -0 0
18.3327444792 121.3337837458 0 -0 0
20.1105204821 121.3337837458 0 -0 0
21.8882964849 121.3337837458 0 -0 0
23.6660724878 121.3337837458 0 -0 0
25.4438484907 121.3337837458 0 -0 0
27.2216244936 121.3337837458 0 -0 0
28.9994004965 121.3337837458 0 -0 0
30.7771764994 121.3337837458 0 -0 0
32.5549525023 121.3337837458 0 -0 0
34.3327285051 121.3337837458 0 -0 0
36.110504508 121.3337837458 0 -0 0
37.8882805109 121.3337837458 -9.9029070373 0.7598342453 1
39.6660565138 121.3337837458 -10.9337785476 0.7564405427 1
41.4438325167 121.3337837458 -10.0247337984 0.2408655312 1
43.2216085196 121.3337837458 -9.7031138984 -0.1958538665 1
44.9993845224 121.3337837458 -9.1699217045 0.3861231592 1
46.7771605253 121.3337837458 -9.7295847781 0.1329515185 1
48.5549365282 121.3337837458 -9.5941631596 0.0833046576 1
50.3327125311 121.3337837458 -9.6848809809 0.2220226065 1
52.110488534 121.3337837458 -9.7467093724 -0.006343503 1
53.8882645369 121.3337837458 0 -0 0
-125.6671117544 119.5560077429 0 -0 0
-123.8893357515 119.5560077429 -9.8151261291 0.3874219306 1
-122.1115597486 119.5560077429 -10.1349088476 0.0913493077 1
-120.3337837458 119.5560077429 -9.9273273761 0.3506439324 1
-118.5560077429 119.5560077429 -9.8510922162 0.0453410114 1
-116.77823174 119.5560077429 -10.1198347942 -0.0384490745 1
-115.0004557371 119.5560077429 -9.8635787504 0.3576819273 1
-113.2226797342 119.5560077429 -9.9420262607 0.1842966627 1
-111.4449037313 119.5560077429 -9.8731212118 0.484284215 1
-109.6671277285 119.5560077429 -9.2445201547 0.1426787005 1
-107.8893517256 119.5560077429 -9.5642785302 0.1401026368 1
-106.1115757227 119.5560077429 -10.4758728521 -0.1773703592 1
-104.3337997198 119.5560077429 -9.7913659155 -0.1851257571 1
-102.5560237169 119.5560077429 -10.0161349868 0.2269327356 1
-100.778247714 119.5560077429 -10.0108840555 -0.2138161469 1
-99.0004717112 119.5560077429 -10.6956780964 -0.4794199081 1
-97.2226957083 119.5560077429 -10.2699008834 0.0664678836 1
-95.4449197054 119.5560077429 -9.890768465 0.0068360911 1
-93.6671437025 119.5560077429 -9.6361362434 0.3063181679 1
-91.8893676996 119.5560077429 -10.1029593578 0.4568682536 1
-90.1115916967 119.5560077429 -9.764594328 -0.2250039097 1
-88.3338156939 119.5560077429 -9.7447476119 0.0783028842 1
-86.556039691 119.5560077429 -10.0764598392 -0.060754435 1
-84.7782636881 119.5560077429 -10.8780573887 0.1886655177 1
-83.0004876852 119.5560077429 -10.1118073273 -0.1515996991 1
-81.2227116823 119.5560077429 -9.7679851666 0.014983841 1
-79.4449356794 119.5560077429 -10.4031201751 0.2229619604 1
-77.6671596766 119.5560077429 -10.1259176838 0.060976386 1
-75.8893836737 119.5560077429 -10.6928056208 -0.4847667795 1
-74.1116076708 119.5560077429 -10.0980979147 -0.5249170011 1
-72.3338316679 119.5560077429 0 -0 0
-70.556055665 119.5560077429 0 -0 0
-68.7782796621 119.5560077429 0 -0 0
-67.0005036592 119.5560077429 0 -0 0
-65.2227276564 119.5560077429 0 -0 0
-63.4449516535 119.5560077429 0 -0 0
-61.6671756506 119.5560077429 0 -0 0
-59.8893996477 119.5560077429 -9.6570196855 0.5903825253 1
-58.1116236448 119.5560077429 -9.8431664172 -0.2304324018 1
-56.3338476419 119.5560077429 -10.5925245749 -0.8645564593 1
-54.5560716391 119.5560077429 -10.3957728807 -0.1327009287 1
-52.7782956362 119.5560077429 -9.7472105521 0.0203407361 1
-51.0005196333 119.5560077429 -9.7785743777 -0.2009143495 1
-49.2227436304 119.5560077429 -10.0539325277 -0.3441343241 1
-47.4449676275 119.5560077429 -9.9739299284 -1.2006890915 1
-45.6671916246 119.5560077429 -10.7939880741 0.4740658769 1
-43.8894156218 119.5560077429 -10.0481861445 0.2161545082 1
-42.1116396189 119.5560077429 -10.8604867445 0.2077189379 1
-40.333863616 119.5560077429 -10.1474412039 0.0239864604 1
-38.5560876131 119.5560077429 -10.0528055893 0.0887775399 1
-36.7783116102 119.5560077429 -11.0286318174 -0.2288572656 1
-35.0005356073 119.5560077429 -10.4146172374 0.1343648453 1
-33.2227596045 119.5560077429 -9.8951659589 0.0244446818 1
-31.4449836016 119.5560077429 0 -0 0
-29.6672075987 119.5560077429 0 -0 0
-27.8894315958 119.5560077429 -10.231794043 -0.5330461358 1
-26.1116555929 119.5560077429 -10.7732642936 0.5858003109 1
-24.33387959 119.5560077429 -8.9487854701 0.1194024833 1
-22.5561035872 119.5560077429 -10.8933004113 -0.0796417499 1
-20.7783275843 119.5560077429 -10.6829116175 -0.2070430613 1
-19.0005515814 119.5560077429 -11.159877893 0.4130780354 1
-17.2227755785 119.5560077429 -11.4627307613 -0.0982670195 1
-15.4449995756 119.5560077429 -11.188662791 0.0352329328 1
-13.6672235727 119.5560077429 -10.561044046 -0.3850749777 1
-11.8894475698 119.5560077429 -11.1206534219 -0.0133399716 1
-10.111671567 119.5560077429 -10.2246400608 0.2164208494 1
-8.3338955641 119.5560077429 -10.8854891677 0.0709827967 1
-6.5561195612 119.5560077429 -10.6118872945 0.3048046052 1
-4.7783435583 119.5560077429 -9.9697329064 0.434342374 1
-3.0005675554 119.5560077429 -10.0388198119 0.3468951083 1
-1.2227915525 119.5560077429 -10.150180509 0.2367673132 1
0.5549844503 119.5560077429 -10.4327699661 0.6165612888 1
2.3327604532 119.5560077429 -10.1460379008 -0.0286918218 1
4.1105364561 119.5560077429 -9.9161997549 0.2129641414 1
5.888312459 119.5560077429 -10.1876358157 0.2296906559 1
7.6660884619 119.5560077429 -10.2027055733 0.9876418974 1
9.4438644648 119.5560077429 -10.6919693666 0.4603765115 1
11.2216404676 119.5560077429 -9.9176818148 0.3838449395 1
12.9994164705 119.5560077429 0 -0 0
14.7771924734 119.5560077429 0 -0 0
16.5549684763 119.5560077429 0 -0 0
18.3327444792 119.5560077429 0 -0 0
20.1105204821 119.5560077429 0 -0 0
21.8882964849 119.5560077429 0 -0 0
23.6660724878 119.5560077429 0 -0 0
25.4438484907 119.5560077429 0 -0 0
27.2216244936 119.5560077429 0 -0 0
28.9994004965 119.5560077429 0 -0 0
30.7771764994 119.5560077429 0 -0 0
32.5549525023 119.5560077429 0 -0 0
34.3327285051 119.5560077429 0 -0 0
36.110504508 119.5560077429 -10.1968560903 0.1151796864 1
37.8882805109 119.5560077429 -9.7997685512 0.287899098 1
39.6660565138 119.5560077429 -11.1440742651 0.5282376746 1
41.4438325167 119.5560077429 0 -0 0
43.2216085196 119.5560077429 -9.4830931468 -0.2106902175 1
44.9993845224 119.5560077429 -9.1838602279 0.6631051315 1
46.7771605253 119.5560077429 -8.8027746405 0.1122470692 1
48.5549365282 119.5560077429 -9.4087825169 -0.359985922 1
50.3327125311 119.5560077429 -9.3161029351 0.0215636145 1
52.110488534 119.5560077429 0 -0 0
53.8882645369 119.5560077429 0 -0 0
-125.6671117544 117.77823174 0 -0 0
-123.8893357515 117.77823174 -9.6921223116 0.1457115536 1
-122.1115597486 117.77823174 -10.4082909176 0.3987170891 1
-120.3337837458 117.77823174 -9.670733394 0.0034781871 1
-118.5560077429 117.77823174 -9.7720017639 0.2679406905 1
-116.77823174 117.77823174 -9.5478484277 -0.2314261696 1
-115.0004557371 117.77823174 -9.7323212193 0.1080858457 1
-113.2226797342 117.77823174 -10.0187182101 0.3633982398 1
-111.4449037313 117.77823174 -10.252729035 0.5226344856 1
-109.6671277285 117.77823174 -9.7335813282 0.2071332736 1
-107.8893517256 117.77823174 -10.1837523891 -0.4092561822 1
-106.1115757227 117.77823174 -10.2043136442 0.0044633632 1
-104.3337997198 117.77823174 -9.6902794022 0.1067097495 1
-102.5560237169 117.77823174 -9.6907218723 0.593376716 1
-100.778247714 117.77823174 -10.1035235429 0.2253332564 1
-99.0004717112 117.77823174 -10.4443944712 -0.2094673391 1
-97.2226957083 117.77823174 -10.6747867786 0.033030606 1
-95.4449197054 117.77823174 -9.986257517 -0.3430417524 1
-93.6671437025 117.77823174 -9.6646505044 0.0155995761 1
-91.8893676996 117.77823174 -9.8861175174 0.3487480412 1
-90.1115916967 117.77823174 -9.999712044 0.060038464 1
-88.3338156939 117.77823174 -9.9786181065 -0.2079222737 1
-86.556039691 117.77823174 -10.3915873143 -0.1601741678 1
-84.7782636881 117.77823174 -10.5347571708 0.2088716512 1
-83.0004876852 117.77823174 -9.9096930104 0.4597407292 1
-81.2227116823 117.77823174 -9.4682410444 0.1040778401 1
-79.4449356794 117.77823174 -10.6181090825 0.3665914704 1
-77.6671596766 117.77823174 -10.0787738574 0.1978800644 1
-75.8893836737 117.77823174 -10.1959553987 -0.5203491061 1
-74.1116076708 117.77823174 -10.0536948253 -0.2578641147 1
-72.3338316679 117.77823174 0 -0 0
-70.556055665 117.77823174 0 -0 0
-68.7782796621 117.77823174 0 -0 0
-67.0005036592 117.77823174 0 -0 0
-65.2227276564 117.77823174 0 -0 0
-63.4449516535 117.77823174 0 -0 0
-61.6671756506 117.77823174 0 -0 0
-59.8893996477 117.77823174 -9.9932296426 0.1129472888 1
-58.1116236448 117.77823174 -10.8906871171 -0.0989028017 1
-56.3338476419 117.77823174 -10.7729163317 -0.7390624947 1
-54.5560716391 117.77823174 -10.8728773386 0.6021058344 1
-52.7782956362 117.77823174 -10.126060878 0.3244895118 1
-51.0005196333 117.77823174 -10.4435725365 0.0868057557 1
-49.2227436304 117.77823174 -10.6380145082 -0.3943854646 1
-47.4449676275 117.77823174 -10.6670593037 -0.6463929365 1
-45.6671916246 117.77823174 -11.1144194624 0.4253182756 1
-43.8894156218 117.77823174 -10.4565659782 0.141062038 1
-42.1116396189 117.77823174 -10.8712356171 0.1149520076 1
-40.333863616 117.77823174 -9.8371350775 -0.3263796753 1
-38.5560876131 117.77823174 -9.7514261894 -0.4460055416 1
-36.7783116102 117.77823174 -11.276128672 -0.5264105166 1
-35.0005356073 117.77823174 -10.3819345933 0.1374392247 1
-33.2227596045 117.77823174 -9.6359028369 -0.6329384095 1
-31.4449836016 117.77823174 -10.1715952015 0.2044025602 1
-29.6672075987 117.77823174 -10.5727623434 -0.4143739429 1
-27.8894315958 117.77823174 -8.7129045289 -0.0433448842 1
-26.1116555929 117.77823174 -10.1831967956 0.1224596795 1
-24.33387959 117.77823174 -9.5783001062 -0.3319800004 1
-22.5561035872 117.77823174 -10.1872277123 0.4245435949 1
-20.7783275843 117.77823174 -10.8998536938 -0.3973767914 1
-19.0005515814 117.77823174 -10.7861138251 -0.1133324812 1
-17.2227755785 117.77823174 -10.758517439 0.2994419825 1
-15.4449995756 117.77823174 -11.0737415701 0.1491797172 1
-13.6672235727 117.77823174 -10.2109378079 -0.217073815 1
-11.8894475698 117.77823174 -11.0671718202 0.9704786407 1
-10.111671567 117.77823174 -11.0099800569 -0.2793146058 1
-8.3338955641 117.77823174 -11.1400025381 -0.2243079859 1
-6.5561195612 117.77823174 -9.849887953 0.9407801637 1
-4.7783435583 117.77823174 0 -0 0
-3.0005675554 117.77823174 -10.2510379115 -0.1960543384 1
-1.2227915525 117.77823174 0 -0 0
0.5549844503 117.77823174 -10.8311713119 -0.2810973735 1
2.3327604532 117.77823174 -10.1972470104 -0.097860348 1
4.1105364561 117.77823174 -9.9828294479 0.7934562433 1
5.888312459 117.77823174 -10.1676373138 0.6744962301 1
7.6660884619 117.77823174 -10.8527062876 1.0194467611 1
9.4438644648 117.77823174 -10.4463089776 0.0285214207 1
11.2216404676 117.77823174 -9.7358752993 0.1550821821 1
12.9994164705 117.77823174 0 -0 0
14.7771924734 117.77823174 0 -0 0