TITLE = "B00009"
VARIABLES = "x", "y", "Vx", "Vy", "isValid"
ZONE T="Frame 0", I=102, J=78, F=POINT
-125.6671117544 126.6671117544 0 -0 0
-123.8893357515 126.6671117544 0 -0 0
-122.1115597486 126.6671117544 0 -0 0
-120.3337837458 126.6671117544 0 -0 0
-118.5560077429 126.6671117544 0 -0 0
-116.77823174 126.6671117544 0 -0 0
-115.0004557371 126.6671117544 0 -0 0
-113.2226797342 126.6671117544 0 -0 0
-111.4449037313 126.6671117544 0 -0 0
-109.6671277285 126.6671117544 0 -0 0
-107.8893517256 126.6671117544 0 -0 0
-106.1115757227 126.6671117544 0 -0 0
-104.3337997198 126.6671117544 0 -0 0
-102.5560237169 126.6671117544 0 -0 0
-100.778247714 126.6671117544 0 -0 0
-99.0004717112 126.6671117544 0 -0 0
-97.2226957083 126.6671117544 0 -0 0
-95.4449197054 126.6671117544 0 -0 0
-93.6671437025 126.6671117544 0 -0 0
-91.8893676996 126.6671117544 0 -0 0
-90.1115916967 126.6671117544 0 -0 0
-88.3338156939 126.6671117544 0 -0 0
-86.556039691 126.6671117544 0 -0 0
-84.7782636881 126.6671117544 0 -0 0
-83.0004876852 126.6671117544 0 -0 0
-81.2227116823 126.6671117544 0 -0 0
-79.4449356794 126.6671117544 0 -0 0
-77.6671596766 126.6671117544 0 -0 0
-75.8893836737 126.6671117544 0 -0 0
-74.1116076708 126.6671117544 0 -0 0
-72.3338316679 126.6671117544 0 -0 0
-70.556055665 126.6671117544 0 -0 0
-68.7782796621 126.6671117544 0 -0 0
-67.0005036592 126.6671117544 0 -0 0
-65.2227276564 126.6671117544 0 -0 0
-63.4449516535 126.6671117544 0 -0 0
-61.6671756506 126.6671117544 0 -0 0
-59.8893996477 126.6671117544 0 -0 0
-58.1116236448 126.6671117544 0 -0 0
-56.3338476419 126.6671117544 0 -0 0
-54.5560716391 126.6671117544 0 -0 0
-52.7782956362 126.6671117544 0 -0 0
-51.0005196333 126.6671117544 0 -0 0
-49.2227436304 126.6671117544 0 -0 0
-47.4449676275 126.6671117544 0 -0 0
-45.6671916246 126.6671117544 0 -0 0
-43.8894156218 126.6671117544 0 -0 0
-42.1116396189 126.6671117544 0 -0 0
-40.333863616 126.6671117544 0 -0 0
-38.5560876131 126.6671117544 0 -0 0
-36.7783116102 126.6671117544 0 -0 0
-35.0005356073 126.6671117544 0 -0 0
-33.2227596045 126.6671117544 0 -0 0
-31.4449836016 126.6671117544 0 -0 0
-29.6672075987 126.6671117544 0 -0 0
-27.8894315958 126.6671117544 0 -0 0
-26.1116555929 126.6671117544 0 -0 0
-24.33387959 126.6671117544 0 -0 0
-22.5561035872 126.6671117544 0 -0 0
-20.7783275843 126.6671117544 0 -0 0
-19.0005515814 126.6671117544 0 -0 0
-17.2227755785 126.6671117544 0 -0 0
-15.4449995756 126.6671117544 0 -0 0
-13.6672235727 126.6671117544 0 -0 0
-11.8894475698 126.6671117544 0 -0 0
-10.111671567 126.6671117544 0 -0 0
-8.3338955641 126.6671117544 0 -0 0
-6.5561195612 126.6671117544 0 -0 0
-4.7783435583 126.6671117544 0 -0 0
-3.0005675554 126.6671117544 0 -0 0
-1.2227915525 126.6671117544 0 -0 0
0.5549844503 126.6671117544 0 -0 0
2.3327604532 126.6671117544 0 -0 0
4.1105364561 126.6671117544 0 -0 0
5.888312459 126.6671117544 0 -0 0
7.6660884619 126.6671117544 0 -0 0
9.4438644648 126.6671117544 0 -0 0
11.2216404676 126.6671117544 0 -0 0
12.9994164705 126.6671117544 0 -0 0
14.7771924734 126.6671117544 0 -0 0
16.5549684763 126.6671117544 0 -0 0
18.3327444792 126.6671117544 0 -0 0
20.1105204821 126.6671117544 0 -0 0
21.8882964849 126.6671117544 0 -0 0
23.6660724878 126.6671117544 0 -0 0
25.4438484907 126.6671117544 0 -0 0
27.2216244936 126.6671117544 0 -0 0
28.9994004965 126.6671117544 0 -0 0
30.7771764994 126.6671117544 0 -0 0
32.5549525023 126.6671117544 0 -0 0
34.3327285051 126.6671117544 0 -0 0
36.110504508 126.6671117544 0 -0 0
37.8882805109 126.6671117544 0 -0 0
39.6660565138 126.6671117544 0 -0 0
41.4438325167 126.6671117544 0 -0 0
43.2216085196 126.6671117544 0 -0 0
44.9993845224 126.6671117544 0 -0 0
46.7771605253 126.6671117544 0 -0 0
48.5549365282 126.6671117544 0 -0 0
50.3327125311 126.6671117544 0 -0 0
52.110488534 126.6671117544 0 -0 0
53.8882645369 126.6671117544 0 -0 0
-125.6671117544 124.8893357515 0 -0 0
-123.8893357515 124.8893357515 -10.6611804658 0.2174518476 1
-122.1115597486 124.8893357515 -10.0206513318 0.3825118015 1
-120.3337837458 124.8893357515 -9.7065720383 -0.3390208592 1
-118.5560077429 124.8893357515 -9.193732036 0.2185673305 1
-116.77823174 124.8893357515 -9.8446470453 0.2281112239 1
-115.0004557371 124.8893357515 -10.1333108003 -0.2347296598 1
-113.2226797342 124.8893357515 -9.8857036862 0.206382936 1
-111.4449037313 124.8893357515 -10.1266365187 0.5220831879 1
-109.6671277285 124.8893357515 -9.8594948518 -0.3226150998 1
-107.8893517256 124.8893357515 -9.9190865499 0.4361437571 1
-106.1115757227 124.8893357515 -9.9584635229 0.3831518796 1
-104.3337997198 124.8893357515 -10.5457566333 -0.0671351685 1
-102.5560237169 124.8893357515 -10.1438685086 -0.3582876388 1
-100.778247714 124.8893357515 -9.9695410262 -0.2320419046 1
-99.0004717112 124.8893357515 -10.2823702343 -0.3508601556 1
-97.2226957083 124.8893357515 -9.6598363154 0.4155638867 1
-95.4449197054 124.8893357515 -9.5694893671 0.1870975412 1
-93.6671437025 124.8893357515 -9.3860490058 -0.5350494227 1
-91.8893676996 124.8893357515 -9.8801649345 -0.5405566716 1
-90.1115916967 124.8893357515 -9.8043521975 0.2664285597 1
-88.3338156939 124.8893357515 -10.2194650224 -0.5839072836 1
-86.556039691 124.8893357515 -9.52374598 -0.4588056711 1
-84.7782636881 124.8893357515 -9.8484989692 0.1398377276 1
-83.0004876852 124.8893357515 -10.3234641057 -0.1119434975 1
-81.2227116823 124.8893357515 -10.0559214951 -0.3538228436 1
-79.4449356794 124.8893357515 -10.0243271269 -0.2893367678 1
-77.6671596766 124.8893357515 -9.8736624859 0.0826473962 1
-75.8893836737 124.8893357515 -9.8388247691 0.5914120916 1
-74.1116076708 124.8893357515 0 -0 0
-72.3338316679 124.8893357515 0 -0 0
-70.556055665 124.8893357515 0 -0 0
-68.7782796621 124.8893357515 0 -0 0
-67.0005036592 124.8893357515 0 -0 0
-65.2227276564 124.8893357515 0 -0 0
-63.4449516535 124.8893357515 0 -0 0
-61.6671756506 124.8893357515 0 -0 0
-59.8893996477 124.8893357515 0 -0 0
-58.1116236448 124.8893357515 -9.9251909186 0.3648373415 1
-56.3338476419 124.8893357515 -10.7668248504 0.0604995493 1
-54.5560716391 124.8893357515 -10.5205365549 -0.0424556482 1
-52.7782956362 124.8893357515 -10.1465533999 0.4007246718 1
-51.0005196333 124.8893357515 -10.0668185737 0.6109122777 1
-49.2227436304 124.8893357515 -9.5855786674 -0.1210993346 1
-47.4449676275 124.8893357515 -9.4377721826 -0.2682600135 1
-45.6671916246 124.8893357515 -9.9887734391 -0.4744911637 1
-43.8894156218 124.8893357515 -10.2448376027 0.3751029336 1
-42.1116396189 124.8893357515 -9.7856639225 -0.8488351681 1
-40.333863616 124.8893357515 -10.6544095281 -0.3225406388 1
-38.5560876131 124.8893357515 -10.9075253231 -0.6099399891 1
-36.7783116102 124.8893357515 -10.7802113602 -0.2200465265 1
-35.0005356073 124.8893357515 -10.2915790533 -0.0454383834 1
-33.2227596045 124.8893357515 0 -0 0
-31.4449836016 124.8893357515 0 -0 0
-29.6672075987 124.8893357515 -10.2558291894 0.1029151032 1
-27.8894315958 124.8893357515 -10.5830716098 0.9310014318 1
-26.1116555929 124.8893357515 0 -0 0
-24.33387959 124.8893357515 -9.9246811473 -0.6282158648 1
-22.5561035872 124.8893357515 0 -0 0
-20.7783275843 124.8893357515 -10.1820784489 0.0663934226 1
-19.0005515814 124.8893357515 -10.4965457987 0.0128903418 1
-17.2227755785 124.8893357515 -10.27986004 0.1930615796 1
-15.4449995756 124.8893357515 -10.3241013199 0.5239991263 1
-13.6672235727 124.8893357515 -10.1191259829 0.0716959038 1
-11.8894475698 124.8893357515 -10.1062599841 0.0023870473 1
-10.111671567 124.8893357515 -10.2724898346 -0.2739648705 1
-8.3338955641 124.8893357515 -9.7701588546 -0.7255535539 1
-6.5561195612 124.8893357515 -10.6561070953 0.3713011276 1
-4.7783435583 124.8893357515 0 -0 0
-3.0005675554 124.8893357515 -10.5731611392 0.4278556768 1
-1.2227915525 124.8893357515 -10.8850968156 0.7946347316 1
0.5549844503 124.8893357515 -9.5224701197 -0.0414633124 1
2.3327604532 124.8893357515 -10.4354978156 -0.2030608306 1
4.1105364561 124.8893357515 -9.9159362775 0.1628919937 1
5.888312459 124.8893357515 -9.9552459492 0.1233890099 1
7.6660884619 124.8893357515 -9.996454376 -0.1489892689 1
9.4438644648 124.8893357515 0 -0 0
11.2216404676 124.8893357515 0 -0 0
12.9994164705 124.8893357515 0 -0 0
14.7771924734 124.8893357515 0 -0 0
16.5549684763 124.8893357515 0 -0 0
18.3327444792 124.8893357515 0 -0 0
20.1105204821 124.8893357515 0 -0 0
21.8882964849 124.8893357515 0 -0 0
23.6660724878 124.8893357515 0 -0 0
25.4438484907 124.8893357515 0 -0 0
27.2216244936 124.8893357515 0 -0 0
28.9994004965 124.8893357515 0 -0 0
30.7771764994 124.8893357515 0 -0 0
32.5549525023 124.8893357515 0 -0 0
34.3327285051 124.8893357515 0 -0 0
36.110504508 124.8893357515 0 -0 0
37.8882805109 124.8893357515 0 -0 0
39.6660565138 124.8893357515 -9.8974971604 0.7234128006 1
41.4438325167 124.8893357515 -9.8175160403 0.3731411731 1
43.2216085196 124.8893357515 0 -0 0
44.9993845224 124.8893357515 -9.3127106645 0.5997846564 1
46.7771605253 124.8893357515 -9.5274289349 0.867080973 1
48.5549365282 124.8893357515 -10.2384511414 0.3673962218 1
50.3327125311 124.8893357515 -10.3332943875 0.0227893569 1
52.110488534 124.8893357515 -9.9314957593 0.429110058 1
53.8882645369 124.8893357515 0 -0 0
-125.6671117544 123.1115597486 0 -0 0
-123.8893357515 123.1115597486 -10.6221042007 0.1743446658 1
-122.1115597486 123.1115597486 -10.1726877733 0.2577538551 1
-120.3337837458 123.1115597486 -9.5457821354 -0.000913579 1
-118.5560077429 123.1115597486 -9.3202612946 -0.3047516234 1
-116.77823174 123.1115597486 -9.7172400061 -0.1674355457 1
-115.0004557371 123.1115597486 -9.8749140032 0.1660780646 1
-113.2226797342 123.1115597486 -9.6736345085 0.6253505488 1
-111.4449037313 123.1115597486 -9.9968452961 0.1015547583 1
-109.6671277285 123.1115597486 -9.8637577431 0.2926560093 1
-107.8893517256 123.1115597486 -9.5767593366 0.5283107036 1
-106.1115757227 123.1115597486 -10.1170038448 0.5325463881 1
-104.3337997198 123.1115597486 -10.2388979073 -0.1975593094 1
-102.5560237169 123.1115597486 -10.0273513884 -0.2885291525 1
-100.778247714 123.1115597486 -9.6856728448 -0.2377224185 1
-99.0004717112 123.1115597486 -9.9244835393 -0.2036851573 1
-97.2226957083 123.1115597486 -9.8322034693 -0.295058808 1
-95.4449197054 123.1115597486 -9.5708640314 0.3629887044 1
-93.6671437025 123.1115597486 -10.0778044327 0.0566018032 1
-91.8893676996 123.1115597486 -10.1563536109 0.0470650695 1
-90.1115916967 123.1115597486 -9.729908397 -0.4608089579 1
-88.3338156939 123.1115597486 -10.1898338467 -0.4406085522 1
-86.556039691 123.1115597486 -9.6247036185 -0.2122725134 1
-84.7782636881 123.1115597486 -10.03244767 -0.2509836334 1
-83.0004876852 123.1115597486 0 -0 0
-81.2227116823 123.1115597486 -10.4933511361 -0.0636641411 1
-79.4449356794 123.1115597486 -9.9121602465 0.2605976919 1
-77.6671596766 123.1115597486 -9.5059039828 0.5341129326 1
-75.8893836737 123.1115597486 -10.293463489 -0.4154908576 1
-74.1116076708 123.1115597486 0 -0 0
-72.3338316679 123.1115597486 0 -0 0
-70.556055665 123.1115597486 0 -0 0
-68.7782796621 123.1115597486 0 -0 0
-67.0005036592 123.1115597486 0 -0 0
-65.2227276564 123.1115597486 0 -0 0
-63.4449516535 123.1115597486 0 -0 0
-61.6671756506 123.1115597486 0 -0 0
-59.8893996477 123.1115597486 -10.4229568676 0.4227694188 1
-58.1116236448 123.1115597486 -10.1458059262 0.3184553083 1
-56.3338476419 123.1115597486 -10.6863296631 0.4981869399 1
-54.5560716391 123.1115597486 -10.3797995677 0.2497364119 1
-52.7782956362 123.1115597486 -9.8526816718 0.5376627168 1
-51.0005196333 123.1115597486 -9.8271601696 0.3113786509 1
-49.2227436304 123.1115597486 -9.5991090873 -0.1552640387 1
-47.4449676275 123.1115597486 -9.857614712 -0.1232701587 1
-45.6671916246 123.1115597486 -10.7416269671 -0.0327914717 1
-43.8894156218 123.1115597486 -10.4533369489 0.2730913858 1
-42.1116396189 123.1115597486 -9.5993424938 -0.6177211619 1
-40.333863616 123.1115597486 -10.9738578881 -0.3292779259 1
-38.5560876131 123.1115597486 -11.0239192963 0.3052871697 1
-36.7783116102 123.1115597486 -10.5184545112 0.0624498543 1
-35.0005356073 123.1115597486 -10.6155165515 0.2239686157 1
-33.2227596045 123.1115597486 -10.4823724368 0.1796084846 1
-31.4449836016 123.1115597486 0 -0 0
-29.6672075987 123.1115597486 0 -0 0
-27.8894315958 123.1115597486 -9.8004415639 0.8309559403 1
-26.1116555929 123.1115597486 0 -0 0
-24.33387959 123.1115597486 -10.152672088 0.5494805341 1
-22.5561035872 123.1115597486 -9.7005764971 -0.0089582291 1
-20.7783275843 123.1115597486 -10.4398695345 0.1085454991 1
-19.0005515814 123.1115597486 -10.2391356096 -0.0419888352 1
-17.2227755785 123.1115597486 -10.1022748895 0.4482723058 1
-15.4449995756 123.1115597486 -10.0234149799 0.6128010092 1
-13.6672235727 123.1115597486 -10.4008877775 0.3319814324 1
-11.8894475698 123.1115597486 -9.8861590437 0.7436175022 1
-10.111671567 123.1115597486 -10.7105387904 0.1835434612 1
-8.3338955641 123.1115597486 -10.6582807833 -0.8316189295 1
-6.5561195612 123.1115597486 -10.7535915585 0.8985693775 1
-4.7783435583 123.1115597486 -10.2056854446 0.7908143104 1
-3.0005675554 123.1115597486 -10.0374623309 0.1157939895 1
-1.2227915525 123.1115597486 -10.0868056201 0.380648845 1
0.5549844503 123.1115597486 -9.8066232575 0.2766297145 1
2.3327604532 123.1115597486 -10.1734552942 0.2717324729 1
4.1105364561 123.1115597486 -10.4928227495 0.0968980829 1
5.888312459 123.1115597486 -10.0880070194 0.4263965279 1
7.6660884619 123.1115597486 -10.093571546 0.2035505547 1
9.4438644648 123.1115597486 0 -0 0
11.2216404676 123.1115597486 0 -0 0
12.9994164705 123.1115597486 0 -0 0
14.7771924734 123.1115597486 0 -0 0
16.5549684763 123.1115597486 0 -0 0
18.3327444792 123.1115597486 0 -0 0
20.1105204821 123.1115597486 0 -0 0
21.8882964849 123.1115597486 0 -0 0
23.6660724878 123.1115597486 0 -0 0
25.4438484907 123.1115597486 0 -0 0
27.2216244936 123.1115597486 0 -0 0
28.9994004965 123.1115597486 0 -0 0
30.7771764994 123.1115597486 0 -0 0
32.5549525023 123.1115597486 0 -0 0
34.3327285051 123.1115597486 0 -0 0
36.110504508 123.1115597486 0 -0 0
37.8882805109 123.1115597486 0 -0 0
39.6660565138 123.1115597486 -10.0078082441 0.5084883306 1
41.4438325167 123.1115597486 -9.6171787633 0.624555821 1
43.2216085196 123.1115597486 -9.741535766 0.590141959 1
44.9993845224 123.1115597486 -9.7586403131 0.5430310674 1
46.7771605253 123.1115597486 -9.8611859753 0.2326977341 1
48.5549365282 123.1115597486 -9.9020965581 0.5953413404 1
50.3327125311 123.1115597486 -10.3749667635 0.2866533085 1
52.110488534 123.1115597486 -11.6655295465 0.3146033843 1
53.8882645369 123.1115597486 0 -0 0
-125.6671117544 121.3337837458 0 -0 0
-123.8893357515 121.3337837458 -10.4887660578 -0.3163546494 1
-122.1115597486 121.3337837458 -10.0621576025 0.329300837 1
-120.3337837458 121.3337837458 -9.3101002342 0.1357022791 1
-118.5560077429 121.3337837458 -9.5061903712 -0.5404507079 1
-116.77823174 121.3337837458 -9.7361659835 -0.2132906242 1
-115.0004557371 121.3337837458 -9.9044120083 0.4202534967 1
-113.2226797342 121.3337837458 -9.7862767937 0.3356586594 1
-111.4449037313 121.3337837458 -9.6880956907 -0.4761736956 1
-109.6671277285 121.3337837458 -9.8708429921 -0.0595043496 1
-107.8893517256 121.3337837458 -9.7152825414 0.45508119 1
-106.1115757227 121.3337837458 -10.3382174041 0.2894599148 1
-104.3337997198 121.3337837458 -9.6830996451 -0.17577088 1
-102.5560237169 121.3337837458 -9.9026621752 0.0139786178 1
-100.778247714 121.3337837458 -9.5469606237 -0.090773667 1
-99.0004717112 121.3337837458 -9.7828143579 0.3493265458 1
-97.2226957083 121.3337837458 -9.656710386 0.0726739202 1
-95.4449197054 121.3337837458 -9.6735027698 0.4384463198 1
-93.6671437025 121.3337837458 -9.8267592258 -0.2041734495 1
-91.8893676996 121.3337837458 -10.2750043247 0.0589730992 1
-90.1115916967 121.3337837458 0 -0 0
-88.3338156939 121.3337837458 -9.8188076519 -0.6555960277 1
-86.556039691 121.3337837458 -9.8246886377 -0.4496512659 1
-84.7782636881 121.3337837458 -10.3240139715 -0.2213768007 1
-83.0004876852 121.3337837458 -10.5792003546 0.3588303448 1
-81.2227116823 121.3337837458 -10.2044754536 0.0193025781 1
-79.4449356794 121.3337837458 -10.129294203 0.4384277045 1
-77.6671596766 121.3337837458 -9.9111679107 0.4768166375 1
-75.8893836737 121.3337837458 -10.0764340642 -0.2640873346 1
-74.1116076708 121.3337837458 -9.8521060311 0.3722648246 1
-72.3338316679 121.3337837458 0 -0 0
-70.556055665 121.3337837458 0 -0 0
-68.7782796621 121.3337837458 0 -0 0
-67.0005036592 121.3337837458 0 -0 0
-65.2227276564 121.3337837458 0 -0 0
-63.4449516535 121.3337837458 0 -0 0
-61.6671756506 121.3337837458 0 -0 0
-59.8893996477 121.3337837458 0 -0 0
-58.1116236448 121.3337837458 -10.2145248226 0.1921322493 1
-56.3338476419 121.3337837458 -10.2728664353 0.2641818427 1
-54.5560716391 121.3337837458 -10.4819743569 -0.0878238665 1
-52.7782956362 121.3337837458 -9.6912187562 -0.3571735879 1
-51.0005196333 121.3337837458 -9.664686303 0.3649518968 1
-49.2227436304 121.3337837458 -9.6628305061 -0.2856695643 1
-47.4449676275 121.3337837458 -10.1461696394 -0.6631624092 1
-45.6671916246 121.3337837458 -10.2509892255 -0.5505215559 1
-43.8894156218 121.3337837458 -9.6203519468 -0.0461199878 1
-42.1116396189 121.3337837458 -10.0304186082 -0.1771426805 1
-40.333863616 121.3337837458 -10.536851386 -0.2230020548 1
-38.5560876131 121.3337837458 -10.7742802564 0.0560762805 1
-36.7783116102 121.3337837458 -10.4368080425 -0.1703839142 1
-35.0005356073 121.3337837458 -10.755776702 0.0116918064 1
-33.2227596045 121.3337837458 -10.2292408904 0.2232025267 1
-31.4449836016 121.3337837458 0 -0 0
-29.6672075987 121.3337837458 -9.6975121413 -0.1294718995 1
-27.8894315958 121.3337837458 0 -0 0
-26.1116555929 121.3337837458 -10.1519604129 -0.5808973415 1
-24.33387959 121.3337837458 -9.9923046081 0.6299485146 1
-22.5561035872 121.3337837458 -9.7392675699 0.0880143148 1
-20.7783275843 121.3337837458 -9.8895054922 -0.5172102893 1
-19.0005515814 121.3337837458 -10.1687012467 -0.0877651569 1
-17.2227755785 121.3337837458 -10.1286312139 0.4406500785 1
-15.4449995756 121.3337837458 -10.1628374443 0.117906104 1
-13.6672235727 121.3337837458 -10.6820252454 0.4015351509 1
-11.8894475698 121.3337837458 -9.7079424068 0.6389282228 1
-10.111671567 121.3337837458 -10.2688140394 0.3601262523 1
-8.3338955641 121.3337837458 -10.6223032406 -0.6574561203 1
-6.5561195612 121.3337837458 -10.7191139751 1.0665089667 1
-4.7783435583 121.3337837458 -10.820184021 0.8988142396 1
-3.0005675554 121.3337837458 -10.4520625206 -0.0512033819 1
-1.2227915525 121.3337837458 -10.7429357621 0.7713556506 1
0.5549844503 121.3337837458 -9.6307449818 0.5267269758 1
2.3327604532 121.3337837458 -10.2218563656 0.8647526353 1
4.1105364561 121.3337837458 -10.8539255862 0.701531295 1
5.888312459 121.3337837458 -10.1427415703 0.6660635237 1
7.6660884619 121.3337837458 -9.7028847876 0.3741621478 1
9.4438644648 121.3337837458 -9.6976682229 0.190461173 1
11.2216404676 121.3337837458 -10.2282055964 0.6512414921 1
12.9994164705 121.3337837458 0 -0 0
14.7771924734 121.3337837458 0 -0 0
16.5549684763 121.3337837458 0 -0 0
18.3327444792 121.3337837458 0 -0 0
20.1105204821 121.3337837458 0 -0 0
21.8882964849 121.3337837458 0 -0 0
23.6660724878 121.3337837458 0 -0 0
25.4438484907 121.3337837458 0 -0 0
27.2216244936 121.3337837458 0 -0 0
28.9994004965 121.3337837458 0 -0 0
30.7771764994 121.3337837458 0 -0 0
32.5549525023 121.3337837458 0 -0 0
34.3327285051 121.3337837458 0 -0 0
36.110504508 121.3337837458 0 -0 0
37.8882805109 121.3337837458 0 -0 0
39.6660565138 121.3337837458 -9.8746906203 0.5963050374 1
41.4438325167 121.3337837458 -9.1165231555 0.7183780925 1
43.2216085196 121.3337837458 -9.6587738144 0.8377003871 1
44.9993845224 121.3337837458 -10.899206456 0.3017431132 1
46.7771605253 121.3337837458 -10.7857909222 0.3966880273 1
48.5549365282 121.3337837458 0 -0 0
50.3327125311 121.3337837458 -10.7707218806 -0.1021361268 1
52.110488534 121.3337837458 -11.6721200595 -0.1877777137 1
53.8882645369 121.3337837458 0 -0 0
-125.6671117544 119.5560077429 0 -0 0
-123.8893357515 119.5560077429 -10.1755001073 -0.13172864 1
-122.1115597486 119.5560077429 -10.0851173605 0.4930677472 1
-120.3337837458 119.5560077429 -9.8231664834 0.1378573518 1
-118.5560077429 119.5560077429 -9.7790927407 -0.3167312501 1
-116.77823174 119.5560077429 -10.1421387227 -0.4104489899 1
-115.0004557371 119.5560077429 -10.4177073682 0.5131808045 1
-113.2226797342 119.5560077429 -10.0536203643 0.0912075454 1
-111.4449037313 119.5560077429 -10.0581495969 -0.0100422092 1
-109.6671277285 119.5560077429 -10.2650423042 -0.0726209383 1
-107.8893517256 119.5560077429 -9.8002095893 0.1357481012 1
-106.1115757227 119.5560077429 -10.0371243925 -0.8723748626 1
-104.3337997198 119.5560077429 -9.3118271563 -0.430441764 1
-102.5560237169 119.5560077429 -9.9487477964 0.106549372 1
-100.778247714 119.5560077429 -9.809449911 0.1960743856 1
-99.0004717112 119.5560077429 -10.0445361243 0.4000903215 1
-97.2226957083 119.5560077429 -9.8853056063 -0.0679971976 1
-95.4449197054 119.5560077429 -10.0521354405 -0.1418166714 1
-93.6671437025 119.5560077429 -9.3489545483 -0.6677761263 1
-91.8893676996 119.5560077429 -9.9884712993 0.0879455816 1
-90.1115916967 119.5560077429 -10.6095403416 -0.3861589578 1
-88.3338156939 119.5560077429 -8.8230695545 -0.4417469461 1
-86.556039691 119.5560077429 -9.697815713 0.4155839339 1
-84.7782636881 119.5560077429 -10.1323657186 0.3018848755 1
-83.0004876852 119.5560077429 -10.1124459735 -0.0417554286 1
-81.2227116823 119.5560077429 -9.9954434249 0.3823056019 1
-79.4449356794 119.5560077429 -10.1976164515 0.1124675883 1
-77.6671596766 119.5560077429 -9.8946891222 0.1455640636 1
-75.8893836737 119.5560077429 -9.7015244427 0.3704333708 1
-74.1116076708 119.5560077429 -9.2072782073 0.2367171953 1
-72.3338316679 119.5560077429 0 -0 0
-70.556055665 119.5560077429 0 -0 0
-68.7782796621 119.5560077429 0 -0 0
-67.0005036592 119.5560077429 0 -0 0
-65.2227276564 119.5560077429 0 -0 0
-63.4449516535 119.5560077429 0 -0 0
-61.6671756506 119.5560077429 0 -0 0
-59.8893996477 119.5560077429 -10.0778430951 0.1935369844 1
-58.1116236448 119.5560077429 -9.9506895098 -0.580293062 1
-56.3338476419 119.5560077429 -10.3794401503 -0.5870861948 1
-54.5560716391 119.5560077429 -10.8716838149 -0.2329096615 1
-52.7782956362 119.5560077429 -9.7165598337 0.004640924 1
-51.0005196333 119.5560077429 -9.4602679914 -0.4753589206 1
-49.2227436304 119.5560077429 -9.9983416755 -0.1940252766 1
-47.4449676275 119.5560077429 -10.0209491758 -0.6619595779 1
-45.6671916246 119.5560077429 -9.6964653917 -0.2957762109 1
-43.8894156218 119.5560077429 -9.6479540607 -0.387265849 1
-42.1116396189 119.5560077429 -10.3158590618 -0.3583678275 1
-40.333863616 119.5560077429 -10.6642999514 -0.587328193 1
-38.5560876131 119.5560077429 -10.6185085943 0.4157256961 1
-36.7783116102 119.5560077429 -10.4579664174 -0.6817962704 1
-35.0005356073 119.5560077429 -10.8707752477 -0.3617572342 1
-33.2227596045 119.5560077429 -10.2817344521 -0.2587290076 1
-31.4449836016 119.5560077429 0 -0 0
-29.6672075987 119.5560077429 -9.9376015599 0.127780776 1
-27.8894315958 119.5560077429 0 -0 0
-26.1116555929 119.5560077429 -10.1561645946 -0.0350267332 1
-24.33387959 119.5560077429 -10.582004813 0.491814798 1
-22.5561035872 119.5560077429 -10.4033707649 0.7065602752 1
-20.7783275843 119.5560077429 -9.4962168952 0.2736484113 1
-19.0005515814 119.5560077429 -9.8385455404 -0.209321281 1
-17.2227755785 119.5560077429 -10.7636967732 0.1430624609 1
-15.4449995756 119.5560077429 -10.5440991604 0.8006030658 1
-13.6672235727 119.5560077429 0 -0 0
-11.8894475698 119.5560077429 0 -0 0
-10.111671567 119.5560077429 -9.9981583869 0.2721563277 1
-8.3338955641 119.5560077429 -10.6550496061 0.2614496974 1
-6.5561195612 119.5560077429 0 -0 0
-4.7783435583 119.5560077429 -11.20315476 -0.3267147497 1
-3.0005675554 119.5560077429 -11.6679910548 0.8299893795 1
-1.2227915525 119.5560077429 -11.3242497987 0.7655219189 1
0.5549844503 119.5560077429 -9.8738157037 0.1881356992 1
2.3327604532 119.5560077429 -10.2084104302 0.4591951593 1
4.1105364561 119.5560077429 -10.0751982983 0.6197888861 1
5.888312459 119.5560077429 -10.0692986973 0.4347547733 1
7.6660884619 119.5560077429 -9.7065577189 0.5169468119 1
9.4438644648 119.5560077429 -10.2284089321 0.3087639248 1
11.2216404676 119.5560077429 -9.1373693671 0.6141928568 1
12.9994164705 119.5560077429 0 -0 0
14.7771924734 119.5560077429 0 -0 0
16.5549684763 119.5560077429 0 -0 0
18.3327444792 119.5560077429 0 -0 0
20.1105204821 119.5560077429 0 -0 0
21.8882964849 119.5560077429 0 -0 0
23.6660724878 119.5560077429 0 -0 0
25.4438484907 119.5560077429 0 -0 0
27.2216244936 119.5560077429 0 -0 0
28.9994004965 119.5560077429 0 -0 0
30.7771764994 119.5560077429 0 -0 0
32.5549525023 119.5560077429 0 -0 0
34.3327285051 119.5560077429 0 -0 0
36.110504508 119.5560077429 -9.9981354759 0.3769988248 1
37.8882805109 119.5560077429 -10.3925366918 0.8197438345 1
39.6660565138 119.5560077429 -9.8316321244 0.3977691435 1
41.4438325167 119.5560077429 -9.6564683878 0.3686119406 1
43.2216085196 119.5560077429 -10.0828935546 0.4776228209 1
44.9993845224 119.5560077429 -10.2275139684 0.818225976 1
46.7771605253 119.5560077429 -10.5038501348 0.4208620721 1
48.5549365282 119.5560077429 -10.7586319943 0.8230688038 1
50.3327125311 119.5560077429 -10.4459581518 -0.2713658957 1
52.110488534 119.5560077429 -10.8391042706 0.1037313101 1
53.8882645369 119.5560077429 0 -0 0
-125.6671117544 117.77823174 0 -0 0
-123.8893357515 117.77823174 -10.2085550564 -0.5231456889 1
-122.1115597486 117.77823174 -9.7140439116 -0.2110138364 1
-120.3337837458 117.77823174 -10.0915582356 -0.2557949585 1
-118.5560077429 117.77823174 -9.9188330962 -0.1368707438 1
-116.77823174 117.77823174 -10.1653848691 -0.5744550345 1
-115.0004557371 117.77823174 -10.3269422928 -0.2941881873 1
-113.2226797342 117.77823174 -10.150525607 -0.1185690931 1
-111.4449037313 117.77823174 -9.8520057952 0.1570553981 1
-109.6671277285 117.77823174 -9.9258424523 0.1928152856 1
-107.8893517256 117.77823174 -9.8497032324 0.056361237 1
-106.1115757227 117.77823174 -9.9134762012 -0.4525065582 1
-104.3337997198 117.77823174 -9.7056641871 -0.0268617999 1
-102.5560237169 117.77823174 -9.8900324468 -0.10383441 1
-100.778247714 117.77823174 -9.870648248 0.2039815693 1
-99.0004717112 117.77823174 -10.0047438882 0.3690916411 1
-97.2226957083 117.77823174 -9.9593427353 0.4972504498 1
-95.4449197054 117.77823174 -10.0520165893 -0.0992836983 1
-93.6671437025 117.77823174 -9.4326830607 -0.2671688737 1
-91.8893676996 117.77823174 -9.4267920514 -0.4221866184 1
-90.1115916967 117.77823174 -9.4955095158 -0.3449662824 1
-88.3338156939 117.77823174 -9.0617413505 0.3458469267 1
-86.556039691 117.77823174 -9.6248597002 0.3428341208 1
-84.7782636881 117.77823174 -10.0364771548 -0.4662503375 1
-83.0004876852 117.77823174 -10.2421727586 -0.0038146935 1
-81.2227116823 117.77823174 -9.7432698478 0.5931132387 1
-79.4449356794 117.77823174 -9.9820762464 -0.5021190526 1
-77.6671596766 117.77823174 -9.9618142671 0.3447199884 1
-75.8893836737 117.77823174 -9.6115483674 0.4147204728 1
-74.1116076708 117.77823174 0 -0 0
-72.3338316679 117.77823174 0 -0 0
-70.556055665 117.77823174 0 -0 0
-68.7782796621 117.77823174 0 -0 0
-67.0005036592 117.77823174 0 -0 0
-65.2227276564 117.77823174 0 -0 0
-63.4449516535 117.77823174 0 -0 0
-61.6671756506 117.77823174 0 -0 0
-59.8893996477 117.77823174 -11.1641644113 0.1529886829 1
-58.1116236448 117.77823174 -10.6875081513 -0.1461082016 1
-56.3338476419 117.77823174 -10.0954015679 -0.4431488173 1
-54.5560716391 117.77823174 -10.7589054952 0.1835892833 1
-52.7782956362 117.77823174 -9.7582894874 -0.0100951911 1
-51.0005196333 117.77823174 -9.3048607585 -0.6383482863 1
-49.2227436304 117.77823174 -9.921676933 0.016886892 1
-47.4449676275 117.77823174 -10.1234790866 -0.6052990651 1
-45.6671916246 117.77823174 -10.6766210963 -0.2859101306 1
-43.8894156218 117.77823174 -10.037679986 -0.5052363903 1
-42.1116396189 117.77823174 -10.0596474082 -0.4185738288 1
-40.333863616 117.77823174 -10.7311472996 -0.6192819786 1
-38.5560876131 117.77823174 -10.3322261588 0.1159185685 1
-36.7783116102 117.77823174 -10.356069425 -0.262101231 1
-35.0005356073 117.77823174 -9.9996705177 -0.1756047747 1
-33.2227596045 117.77823174 -9.7603328686 -0.4705418677 1
-31.4449836016 117.77823174 0 -0 0
-29.6672075987 117.77823174 0 -0 0
-27.8894315958 117.77823174 -9.9450290431 0.3290359277 1
-26.1116555929 117.77823174 -10.0751710914 0.6862138114 1
-24.33387959 117.77823174 -11.1793787951 0.1855682272 1
-22.5561035872 117.77823174 -10.9578323093 0.3066947687 1
-20.7783275843 117.77823174 -9.8651152241 0.1745293863 1
-19.0005515814 117.77823174 -9.7178972675 0.0553803567 1
-17.2227755785 117.77823174 0 -0 0
-15.4449995756 117.77823174 0 -0 0
-13.6672235727 117.77823174 0 -0 0
-11.8894475698 117.77823174 -10.6376830136 0.7563274193 1
-10.111671567 117.77823174 -10.717091357 0.1571914326 1
-8.3338955641 117.77823174 -10.3673789029 0.5241609357 1
-6.5561195612 117.77823174 -10.8990417827 0.9687302395 1
-4.7783435583 117.77823174 0 -0 0
-3.0005675554 117.77823174 0 -0 0
-1.2227915525 117.77823174 -10.1734638858 0.8840337343 1
0.5549844503 117.77823174 -10.5767288227 -0.2126090198 1
2.3327604532 117.77823174 -10.253864565 0.3057010009 1
4.1105364561 117.77823174 -9.9939269983 0.5459393415 1
5.888312459 117.77823174 -10.1484722022 0.8050091514 1
7.6660884619 117.77823174 -10.3648887557 0.6801323538 1
9.4438644648 117.77823174 -10.3758159051 0.2050354786 1
11.2216404676 117.77823174 -10.1405907934 0.3100612643 1
12.9994164705 117.77823174 0 -0 0
14.7771924734 117.77823174 0 -0 0
16.5549684763 117.77823174 0 -0 0
18.3327444792 117.77823174 0 -0 0
20.1105204821 117.77823174 0 -0 0
21.8882964849 117.77823174 0 -0 0
23.6660724878 117.77823174 0 -0 0
25.4438484907 117.77823174 0 -0 0
27.2216244936 117.77823174 0 -0 0
28.9994004965 117.77823174 0 -0 0
30.7771764994 117.77823174 0 -0 0
32.5549525023 117.77823174 0 -0 0
34.3327285051 117.77823174 0 -0 0
36.110504508 117.77823174 -9.9895853502 0.2750459867 1
37.8882805109 117.77823174 -10.3416869996 0.8352202636 1